 Gaussian 16, Revision A.03,
 Gaussian 16:  ES64L-G16RevA.03 25-Dec-2016

 ----------------------------------------------------------------------
 #P PBE1PBE/def2TZVP opt freq=(noraman) scrf=(pcm,solvent=acetone) Empi
 ricalDispersion=GD3BJ gfinput
 ----------------------------------------------------------------------

 -----
 TITLE
 -----
 Symbolic Z-matrix:
 Charge =  0 Multiplicity = 1

 SCF Done:  E(RPBE1PBE) =  -1069.15437630     A.U. after   13 cycles
 SCF Done:  E(RPBE1PBE) =  -1069.16785263     A.U. after   13 cycles
 SCF Done:  E(RPBE1PBE) =  -1069.17264063     A.U. after   12 cycles
 SCF Done:  E(RPBE1PBE) =  -1069.16684286     A.U. after   14 cycles
 SCF Done:  E(RPBE1PBE) =  -1069.17615584     A.U. after   12 cycles
 SCF Done:  E(RPBE1PBE) =  -1069.17697923     A.U. after   11 cycles
 SCF Done:  E(RPBE1PBE) =  -1069.17713393     A.U. after   10 cycles
 SCF Done:  E(RPBE1PBE) =  -1069.17715813     A.U. after   10 cycles
 SCF Done:  E(RPBE1PBE) =  -1069.17716367     A.U. after    9 cycles
 SCF Done:  E(RPBE1PBE) =  -1069.17716546     A.U. after    8 cycles
 SCF Done:  E(RPBE1PBE) =  -1069.17718563     A.U. after   10 cycles
 SCF Done:  E(RPBE1PBE) =  -1069.17718160     A.U. after   10 cycles
 SCF Done:  E(RPBE1PBE) =  -1069.17718987     A.U. after   10 cycles
 SCF Done:  E(RPBE1PBE) =  -1069.17719067     A.U. after    8 cycles
 SCF Done:  E(RPBE1PBE) =  -1069.17719109     A.U. after   10 cycles
 SCF Done:  E(RPBE1PBE) =  -1069.17719125     A.U. after    8 cycles
 SCF Done:  E(RPBE1PBE) =  -1069.17719108     A.U. after    9 cycles
 SCF Done:  E(RPBE1PBE) =  -1069.17719135     A.U. after    6 cycles
 SCF Done:  E(RPBE1PBE) =  -1069.17719110     A.U. after    9 cycles
 Optimization completed on the basis of negligible forces.
    -- Stationary point found.
 Normal termination of Gaussian 16 at Sun Mar 10 08:00:14 2024.

 ----------------------------------------------------------------------
 #P Geom=AllCheck Guess=TCheck SCRF=Check GenChk RPBE1PBE/def2TZVP Freq
 ----------------------------------------------------------------------

 Structure from the checkpoint file:  "sp1_gs_pbe0.chk"
 -----
 TITLE
 -----
 Charge =  0 Multiplicity = 1

                         Standard orientation:
 ---------------------------------------------------------------------
 Center     Atomic      Atomic             Coordinates (Angstroms)
 Number     Number       Type             X           Y           Z
 ---------------------------------------------------------------------
      1          6           0        4.636506   -2.086513   -0.339125
      2          6           0        3.542257   -1.705870   -1.115241
      3          6           0        2.793217   -0.621217   -0.688705
      4          6           0        3.113717    0.064194    0.483997
      5          6           0        4.193982   -0.321892    1.244317
      6          6           0        4.963288   -1.411037    0.827202
      7          1           0        3.288433   -2.251311   -2.015941
      8          1           0        5.813198   -1.730708    1.418247
      9          1           0        5.234645   -2.934745   -0.652726
     10          1           0        4.445335    0.207143    2.157560
     11          7           0        1.678084   -0.048485   -1.287446
     12          6           0        0.998186    0.755736   -0.306705
     13          6           0        2.154412    1.218308    0.642993
     14          6           0        0.922165   -0.764413   -2.282305
     15          1           0        0.118062   -0.126926   -2.649494
     16          1           0        0.488826   -1.692692   -1.889153
     17          6           0        2.828365    2.481683    0.099485
     18          1           0        3.116906    2.364364   -0.947005
     19          1           0        3.731624    2.676475    0.679751
     20          1           0        2.173806    3.351415    0.191018
     21          6           0        1.682923    1.465139    2.065423
     22          1           0        1.291156    0.560017    2.526457
     23          1           0        0.903832    2.231524    2.083781
     24          1           0        2.518360    1.826625    2.668496
     25          8           0        0.158928   -0.130022    0.496552
     26          6           0       -1.163074   -0.191090    0.364022
     27          6           0        0.203487    1.847886   -0.933915
     28          6           0       -1.127911    1.855271   -0.956286
     29          6           0       -1.882208    0.788787   -0.339299
     30          1           0        0.770871    2.626115   -1.425364
     31          1           0       -1.669376    2.653968   -1.450841
     32          6           0       -3.261534    0.689080   -0.407488
     33          6           0       -1.822639   -1.249663    0.988081
     34          6           0       -3.194762   -1.340403    0.914858
     35          6           0       -3.902746   -0.369228    0.214992
     36          1           0       -3.838415    1.432434   -0.941551
     37          1           0       -1.241058   -1.988079    1.525034
     38          1           0       -3.725353   -2.152830    1.391057
     39          7           0       -5.342691   -0.464390    0.136520
     40          8           0       -5.944449    0.394989   -0.482652
     41          8           0       -5.889418   -1.399767    0.693231
     42          1           0        1.565107   -1.012810   -3.127693
 ---------------------------------------------------------------------

 SCF Done:  E(RPBE1PBE) =  -1069.17719110     A.U. after    1 cycles

 The electronic state is 1-A.
 Alpha  occ. eigenvalues --  -19.26037 -19.24185 -19.24178 -14.62748 -14.41238
 Alpha  occ. eigenvalues --  -10.33863 -10.31634 -10.28510 -10.26248 -10.25788
 Alpha  occ. eigenvalues --  -10.25660 -10.25635 -10.25570 -10.24972 -10.24842
 Alpha  occ. eigenvalues --  -10.24452 -10.24310 -10.22890 -10.22818 -10.22732
 Alpha  occ. eigenvalues --  -10.22520 -10.22020 -10.21700 -10.21302  -1.27640
 Alpha  occ. eigenvalues --   -1.13239  -1.09473  -1.00663  -0.92478  -0.88439
 Alpha  occ. eigenvalues --   -0.86694  -0.85720  -0.82899  -0.79520  -0.77241
 Alpha  occ. eigenvalues --   -0.76578  -0.75551  -0.72272  -0.70866  -0.68063
 Alpha  occ. eigenvalues --   -0.67062  -0.65270  -0.63831  -0.61351  -0.59280
 Alpha  occ. eigenvalues --   -0.58642  -0.58145  -0.56662  -0.55864  -0.54509
 Alpha  occ. eigenvalues --   -0.53085  -0.52236  -0.51483  -0.49554  -0.48423
 Alpha  occ. eigenvalues --   -0.47490  -0.46940  -0.46287  -0.45552  -0.45275
 Alpha  occ. eigenvalues --   -0.44972  -0.44540  -0.43878  -0.43110  -0.42206
 Alpha  occ. eigenvalues --   -0.41352  -0.40718  -0.39902  -0.39053  -0.38719
 Alpha  occ. eigenvalues --   -0.38349  -0.37343  -0.36268  -0.35694  -0.34804
 Alpha  occ. eigenvalues --   -0.34212  -0.33889  -0.33825  -0.33277  -0.31914
 Alpha  occ. eigenvalues --   -0.31725  -0.27969  -0.26752  -0.24799  -0.22047
 Alpha virt. eigenvalues --   -0.08960  -0.05311  -0.01046  -0.00427   0.00445
 Alpha virt. eigenvalues --    0.04067   0.04367   0.06312   0.06611   0.06966
 Alpha virt. eigenvalues --    0.07178   0.08302   0.09025   0.09687   0.10281

 Mulliken charges:
               1
     1  C   -0.118016
     2  C   -0.315403
     3  C    0.136846
     4  C   -0.101027
     5  C   -0.237088
     6  C   -0.166652
     7  H    0.136774
     8  H    0.132731
     9  H    0.135448
    10  H    0.132096
    11  N   -0.045374
    12  C    0.417459
    13  C    0.253396
    14  C   -0.365407
    15  H    0.162242
    16  H    0.140382
    17  C   -0.470679
    18  H    0.152878
    19  H    0.144123
    20  H    0.147625
    21  C   -0.420349
    22  H    0.143193
    23  H    0.138335
    24  H    0.141518
    25  O   -0.235364
    26  C    0.239027
    27  C   -0.317356
    28  C   -0.238647
    29  C    0.248438
    30  H    0.162181
    31  H    0.146969
    32  C   -0.315635
    33  C   -0.306691
    34  C   -0.134000
    35  C    0.101532
    36  H    0.164103
    37  H    0.137067
    38  H    0.163686
    39  N    0.471698
    40  O   -0.358728
    41  O   -0.359708
    42  H    0.156380
 Sum of Mulliken charges =   0.00000

 Dipole moment (field-independent basis, Debye):
    X=              6.3549    Y=              2.1024    Z=             -1.1684  Tot=              6.7948
 Quadrupole moment (field-independent basis, Debye-Ang):
   XX=           -190.9604   YY=           -130.5434   ZZ=           -132.1757
   XY=             -4.0166   XZ=              2.8176   YZ=              0.7463

  Exact polarizability: 484.098  -8.350 306.289  17.736 -19.185 263.875
 Approx polarizability: 494.924  -8.450 357.449  24.178 -32.821 311.440

                      1                      2                      3
                      A                      A                      A
 Frequencies --     13.1178                40.0718                47.7530
 Red. masses --      5.8558                 5.8675                 9.0070
 Frc consts  --      0.0006                 0.0056                 0.0121
 IR Inten    --      0.8000                 0.3484                 0.1609

                      4                      5                      6
                      A                      A                      A
 Frequencies --     88.2035               103.1550               114.6181
 Red. masses --      4.6651                 5.3727                 3.5868
 Frc consts  --      0.0214                 0.0337                 0.0278
 IR Inten    --      2.0546                 0.6479                 2.9958

                      7                      8                      9
                      A                      A                      A
 Frequencies --    124.9968               157.3572               174.2341
 Red. masses --      3.1684                 5.7196                 1.6500
 Frc consts  --      0.0292                 0.0834                 0.0295
 IR Inten    --      2.9091                 4.8935                 0.5296

                     10                     11                     12
                      A                      A                      A
 Frequencies --    193.2202               214.7744               229.4078
 Red. masses --      1.9061                 2.2910                 1.7628
 Frc consts  --      0.0419                 0.0623                 0.0547
 IR Inten    --      0.3392                 6.4377                 1.4351

                     13                     14                     15
                      A                      A                      A
 Frequencies --    233.2218               262.6206               268.3426
 Red. masses --      2.9245                 2.4221                 3.7436
 Frc consts  --      0.0937                 0.0984                 0.1588
 IR Inten    --      0.5024                 1.4652                 2.2795

                     16                     17                     18
                      A                      A                      A
 Frequencies --    289.4751               316.9630               323.2107
 Red. masses --      2.4234                 1.9010                 3.4239
 Frc consts  --      0.1196                 0.1125                 0.2107
 IR Inten    --      1.2455                 0.9176                 0.3602

                     19                     20                     21
                      A                      A                      A
 Frequencies --    330.1218               338.4146               372.9264
 Red. masses --      1.9319                 3.0946                 3.7583
 Frc consts  --      0.1240                 0.2088                 0.3080
 IR Inten    --      1.6092                 1.5030                 1.2304

                     22                     23                     24
                      A                      A                      A
 Frequencies --    414.4112               419.9846               432.6535
 Red. masses --      5.6127                 3.1916                 5.3647
 Frc consts  --      0.5679                 0.3317                 0.5917
 IR Inten    --      0.9524                 4.5404                14.6100

                     25                     26                     27
                      A                      A                      A
 Frequencies --    457.3312               488.4913               511.4012
 Red. masses --      3.6234                 3.3782                 4.6281
 Frc consts  --      0.4465                 0.4749                 0.7131
 IR Inten    --      4.8657                 5.8760                26.0764

                     28                     29                     30
                      A                      A                      A
 Frequencies --    534.6695               551.5360               559.2701
 Red. masses --      6.1820                 5.6272                 4.4124
 Frc consts  --      1.0412                 1.0085                 0.8131
 IR Inten    --      7.6865                 2.4593                 9.2045

                     31                     32                     33
                      A                      A                      A
 Frequencies --    563.0130               579.1348               583.6264
 Red. masses --      3.5118                 5.0242                 5.5064
 Frc consts  --      0.6559                 0.9928                 1.1051
 IR Inten    --      1.0829                 2.5496                 9.6460

                     34                     35                     36
                      A                      A                      A
 Frequencies --    592.7430               639.5423               648.9997
 Red. masses --      4.1553                 4.2061                 4.1821
 Frc consts  --      0.8602                 1.0136                 1.0378
 IR Inten    --      3.0382                 3.6641                 1.4641

                     37                     38                     39
                      A                      A                      A
 Frequencies --    700.9256               738.8432               758.3078
 Red. masses --      6.6656                 2.4854                 1.2642
 Frc consts  --      1.9294                 0.7994                 0.4283
 IR Inten    --     37.6312                 9.6940               107.1660

                     40                     41                     42
                      A                      A                      A
 Frequencies --    774.0200               782.1669               788.2825
 Red. masses --      4.4061                 3.8576                 3.3198
 Frc consts  --      1.5553                 1.3905                 1.2154
 IR Inten    --     10.8839                 8.6937                52.6664

                     43                     44                     45
                      A                      A                      A
 Frequencies --    796.0845               798.3331               838.8674
 Red. masses --      4.7990                 2.2834                 3.1618
 Frc consts  --      1.7919                 0.8574                 1.3109
 IR Inten    --     19.9966                10.2188                26.5389

                     46                     47                     48
                      A                      A                      A
 Frequencies --    844.0549               862.7688               869.5893
 Red. masses --      5.6615                 2.0741                 1.6174
 Frc consts  --      2.3764                 0.9096                 0.7206
 IR Inten    --    215.0357                31.3379                 6.3491

                     49                     50                     51
                      A                      A                      A
 Frequencies --    875.7701               942.4063               944.9185
 Red. masses --      3.7146                 1.6562                 1.5356
 Frc consts  --      1.6786                 0.8666                 0.8078
 IR Inten    --      5.7732                 9.6526                28.3659

                     52                     53                     54
                      A                      A                      A
 Frequencies --    948.9585               954.9587               962.3176
 Red. masses --      1.8748                 3.0694                 1.6319
 Frc consts  --      0.9947                 1.6492                 0.8904
 IR Inten    --     13.8846               215.8565                28.9702

                     55                     56                     57
                      A                      A                      A
 Frequencies --    974.0747               978.2509               983.8697
 Red. masses --      1.2767                 3.5045                 1.3498
 Frc consts  --      0.7137                 1.9760                 0.7698
 IR Inten    --      9.2361               422.8247                 1.3194

                     58                     59                     60
                      A                      A                      A
 Frequencies --   1010.0086              1026.1430              1036.6270
 Red. masses --      1.3375                 1.7922                 2.2116
 Frc consts  --      0.8039                 1.1118                 1.4003
 IR Inten    --     12.5189                86.7413                40.2931

                     61                     62                     63
                      A                      A                      A
 Frequencies --   1054.1796              1090.2595              1114.2789
 Red. masses --      2.1091                 2.9702                 1.6934
 Frc consts  --      1.3810                 2.0801                 1.2388
 IR Inten    --     50.9893                10.0242               409.1978

                     64                     65                     66
                      A                      A                      A
 Frequencies --   1126.4041              1141.1045              1143.6183
 Red. masses --      1.7983                 1.4973                 1.3481
 Frc consts  --      1.3443                 1.1487                 1.0388
 IR Inten    --     40.0068                20.2451                15.2730

                     67                     68                     69
                      A                      A                      A
 Frequencies --   1150.1944              1169.4854              1182.8408
 Red. masses --      1.3795                 1.2567                 2.0934
 Frc consts  --      1.0753                 1.0127                 1.7256
 IR Inten    --     21.5016                 1.7040                16.5249

                     70                     71                     72
                      A                      A                      A
 Frequencies --   1194.6974              1212.9728              1220.4105
 Red. masses --      1.8684                 2.3643                 2.0010
 Frc consts  --      1.5712                 2.0495                 1.7559
 IR Inten    --     30.2538                61.5842                24.2890

                     73                     74                     75
                      A                      A                      A
 Frequencies --   1257.0073              1272.3632              1290.5372
 Red. masses --      2.4796                 1.5636                 2.8410
 Frc consts  --      2.3083                 1.4914                 2.7878
 IR Inten    --     60.5634                16.5026                29.6282

                     76                     77                     78
                      A                      A                      A
 Frequencies --   1309.2569              1321.8791              1338.7459
 Red. masses --      4.0926                 1.9060                 3.1266
 Frc consts  --      4.1333                 1.9623                 3.3015
 IR Inten    --     11.2345               376.5739               422.0413

                     79                     80                     81
                      A                      A                      A
 Frequencies --   1356.8690              1385.6323              1398.7778
 Red. masses --      5.8297                 1.2718                 9.5273
 Frc consts  --      6.3237                 1.4387                10.9829
 IR Inten    --    118.9013                24.5403              1288.6088

                     82                     83                     84
                      A                      A                      A
 Frequencies --   1405.5240              1408.2875              1414.6835
 Red. masses --      1.3643                 2.8227                 3.9284
 Frc consts  --      1.5879                 3.2984                 4.6322
 IR Inten    --      9.0690                 1.5316                32.6583

                     85                     86                     87
                      A                      A                      A
 Frequencies --   1424.2284              1448.5954              1470.6334
 Red. masses --      3.9857                 1.2334                 1.0540
 Frc consts  --      4.7634                 1.5249                 1.3431
 IR Inten    --     11.8104                10.0621                 4.3838

                     88                     89                     90
                      A                      A                      A
 Frequencies --   1473.7438              1476.8712              1486.4626
 Red. masses --      1.0524                 1.0612                 1.0975
 Frc consts  --      1.3468                 1.3637                 1.4288
 IR Inten    --      7.1572                39.5460                 5.1888

                     91                     92                     93
                      A                      A                      A
 Frequencies --   1489.7871              1494.5455              1497.3090
 Red. masses --      1.2169                 1.8335                 1.5031
 Frc consts  --      1.5913                 2.4130                 1.9855
 IR Inten    --      9.4744                60.7769                39.0606

                     94                     95                     96
                      A                      A                      A
 Frequencies --   1507.9360              1528.2107              1532.2158
 Red. masses --      1.9499                 3.5451                 3.4175
 Frc consts  --      2.6124                 4.8780                 4.7271
 IR Inten    --     68.1532               272.8197                86.1950

                     97                     98                     99
                      A                      A                      A
 Frequencies --   1599.8820              1641.1788              1661.7602
 Red. masses --     12.1347                 7.8965                 7.2750
 Frc consts  --     18.3002                12.5314                11.8364
 IR Inten    --    369.8637               196.6626                 3.7500

                    100                    101                    102
                      A                      A                      A
 Frequencies --   1671.9585              1674.2545              1726.3765
 Red. masses --      7.3198                 7.8911                 7.7756
 Frc consts  --     12.0560                13.0326                13.6539
 IR Inten    --    151.5465               117.8264                50.4345

                    103                    104                    105
                      A                      A                      A
 Frequencies --   3017.1409              3051.5589              3057.2191
 Red. masses --      1.0485                 1.0350                 1.0377
 Frc consts  --      5.6235                 5.6786                 5.7142
 IR Inten    --     81.0003                26.5528                37.7985

                    106                    107                    108
                      A                      A                      A
 Frequencies --   3108.7218              3125.6116              3131.4437
 Red. masses --      1.0874                 1.1013                 1.1022
 Frc consts  --      6.1916                 6.3390                 6.3682
 IR Inten    --     33.7497                20.0473                47.9635

                    109                    110                    111
                      A                      A                      A
 Frequencies --   3138.7856              3151.1328              3158.1600
 Red. masses --      1.1025                 1.1023                 1.1009
 Frc consts  --      6.3993                 6.4486                 6.4692
 IR Inten    --     28.7377                 9.6685                22.5370

                    112                    113                    114
                      A                      A                      A
 Frequencies --   3186.2974              3193.5047              3198.8519
 Red. masses --      1.0865                 1.0893                 1.0902
 Frc consts  --      6.4991                 6.5454                 6.5726
 IR Inten    --      4.4921                13.2398                 8.3343

                    115                    116                    117
                      A                      A                      A
 Frequencies --   3209.4985              3216.9683              3223.0708
 Red. masses --      1.0930                 1.0967                 1.0908
 Frc consts  --      6.6333                 6.6867                 6.6761
 IR Inten    --     28.4255                15.5271                 1.0990

                    118                    119                    120
                      A                      A                      A
 Frequencies --   3233.6463              3237.1609              3248.0388
 Red. masses --      1.0917                 1.0940                 1.0939
 Frc consts  --      6.7259                 6.7543                 6.7992
 IR Inten    --      2.8312                 0.7455                 4.4032

 - Thermochemistry -
 -------------------
 Temperature   298.150 Kelvin.  Pressure   1.00000 Atm.
 Atom     1 has atomic number  6 and mass  12.00000

 Molecular mass:   322.13174 amu.
 Principal axes and moments of inertia in atomic units:
                           1         2         3
     Eigenvalues --  2932.38681********************
           X            0.99999   0.00008   0.00344
           Y           -0.00022   0.99921   0.03983
           Z           -0.00343  -0.03983   0.99920
 This molecule is an asymmetric top.
 Rotational symmetry number  1.
 Warning -- assumption of classical behavior for rotation
           may cause significant error
 Rotational temperatures (Kelvin)      0.02954     0.00618     0.00591
 Rotational constants (GHZ):           0.61545     0.12880     0.12307
 Zero-point vibrational energy     885573.5 (Joules/Mol)
                                  211.65715 (Kcal/Mol)
 Warning -- explicit consideration of  34 degrees of freedom as
           vibrations may cause significant error
 Vibrational temperatures:     18.87    57.65    68.71   126.91   148.42
          (Kelvin)            164.91   179.84   226.40   250.68   278.00
                              309.01   330.07   335.55   377.85   386.09
                              416.49   456.04   465.03   474.97   486.90
                              536.56   596.25   604.26   622.49   658.00
                              702.83   735.79   769.27   793.54   804.66
                              810.05   833.25   839.71   852.83   920.16
                              933.77  1008.48  1063.03  1091.04  1113.64
                             1125.36  1134.16  1145.39  1148.62  1206.94
                             1214.41  1241.33  1251.15  1260.04  1355.91
                             1359.53  1365.34  1373.97  1384.56  1401.48
                             1407.48  1415.57  1453.18  1476.39  1491.47
                             1516.73  1568.64  1603.20  1620.64  1641.79
                             1645.41  1654.87  1682.63  1701.84  1718.90
                             1745.20  1755.90  1808.55  1830.65  1856.80
                             1883.73  1901.89  1926.16  1952.23  1993.62
                             2012.53  2022.24  2026.21  2035.41  2049.15
                             2084.21  2115.91  2120.39  2124.89  2138.69
                             2143.47  2150.32  2154.29  2169.58  2198.75
                             2204.52  2301.87  2361.29  2390.90  2405.58
                             2408.88  2483.87  4340.99  4390.51  4398.66
                             4472.76  4497.06  4505.45  4516.01  4533.78
                             4543.89  4584.37  4594.74  4602.43  4617.75
                             4628.50  4637.28  4652.50  4657.55  4673.20

 Zero-point correction=                           0.337297 (Hartree/Particle)
 Thermal correction to Energy=                    0.357257
 Thermal correction to Enthalpy=                  0.358201
 Thermal correction to Gibbs Free Energy=         0.288482
 Sum of electronic and zero-point Energies=          -1068.839894
 Sum of electronic and thermal Energies=             -1068.819934
 Sum of electronic and thermal Enthalpies=           -1068.818990
 Sum of electronic and thermal Free Energies=        -1068.888709

                     E (Thermal)             CV                S
                      KCal/Mol        Cal/Mol-Kelvin    Cal/Mol-Kelvin
 Total                  224.182             80.144            146.735
 Electronic               0.000              0.000              0.000
 Translational            0.889              2.981             43.205
 Rotational               0.889              2.981             34.754
 Vibrational            222.404             74.182             68.776
 Vibration     1          0.593              1.987              7.472
 Vibration     2          0.594              1.981              5.256
 Vibration     3          0.595              1.978              4.908
 Vibration     4          0.601              1.957              3.700
 Vibration     5          0.605              1.947              3.394
 Vibration     6          0.608              1.937              3.189
 Vibration     7          0.610              1.928              3.022
 Vibration     8          0.621              1.894              2.581
 Vibration     9          0.627              1.874              2.389
 Vibration    10          0.635              1.849              2.197
 Vibration    11          0.645              1.818              2.003
 Vibration    12          0.652              1.796              1.884
 Vibration    13          0.654              1.790              1.854
 Vibration    14          0.670              1.741              1.644
 Vibration    15          0.673              1.731              1.607
 Vibration    16          0.686              1.693              1.477
 Vibration    17          0.704              1.641              1.326
 Vibration    18          0.708              1.629              1.294
 Vibration    19          0.713              1.615              1.259
 Vibration    20          0.719              1.599              1.220
 Vibration    21          0.744              1.528              1.068
 Vibration    22          0.778              1.439              0.911
 Vibration    23          0.783              1.427              0.892
 Vibration    24          0.794              1.399              0.850
 Vibration    25          0.815              1.345              0.774
 Vibration    26          0.844              1.276              0.688
 Vibration    27          0.867              1.225              0.630
 Vibration    28          0.890              1.173              0.577
 Vibration    29          0.907              1.136              0.541
 Vibration    30          0.915              1.119              0.525
 Vibration    31          0.919              1.111              0.518
 Vibration    32          0.936              1.076              0.487
 Vibration    33          0.941              1.067              0.479
 Vibration    34          0.950              1.047              0.462

 Optimization completed.
    -- Stationary point found.
 Normal termination of Gaussian 16 at Sun Mar 10 10:03:09 2024.
