 Gaussian 16, Revision A.03,
 Gaussian 16:  ES64L-G16RevA.03 25-Dec-2016

 ----------------------------------------------------------------------
 #p PBE1PBE/def2TZVP EmpiricalDispersion=GD3BJ SCRF(PCM,Solvent=acetone
 ) TD(Singlets,NStates=5, root=1) opt guess=(read) geom=(allcheck) gfin
 put
 ----------------------------------------------------------------------

 Structure from the checkpoint file:  "sp1_s1_pbe0.chk"
 -----
 TITLE
 -----
 Charge =  0 Multiplicity = 1

 SCF Done:  E(RPBE1PBE) =  -1069.17719110     A.U. after    1 cycles
 Total Energy, E(TD-HF/TD-DFT) =  -1069.06619321
 SCF Done:  E(RPBE1PBE) =  -1069.16878889     A.U. after   12 cycles
 Total Energy, E(TD-HF/TD-DFT) =  -1069.08256677
 SCF Done:  E(RPBE1PBE) =  -1069.15972676     A.U. after   12 cycles
 Total Energy, E(TD-HF/TD-DFT) =  -1069.08676803
 SCF Done:  E(RPBE1PBE) =  -1069.15810451     A.U. after   11 cycles
 Total Energy, E(TD-HF/TD-DFT) =  -1069.08736834
 SCF Done:  E(RPBE1PBE) =  -1069.15735538     A.U. after   10 cycles
 Total Energy, E(TD-HF/TD-DFT) =  -1069.08763174
 SCF Done:  E(RPBE1PBE) =  -1069.15715078     A.U. after   10 cycles
 Total Energy, E(TD-HF/TD-DFT) =  -1069.08776066
 SCF Done:  E(RPBE1PBE) =  -1069.15673920     A.U. after   11 cycles
 Total Energy, E(TD-HF/TD-DFT) =  -1069.08796865
 SCF Done:  E(RPBE1PBE) =  -1069.15647286     A.U. after   11 cycles
 Total Energy, E(TD-HF/TD-DFT) =  -1069.08821623
 SCF Done:  E(RPBE1PBE) =  -1069.15708546     A.U. after   10 cycles
 Total Energy, E(TD-HF/TD-DFT) =  -1069.08841453
 SCF Done:  E(RPBE1PBE) =  -1069.15723082     A.U. after   10 cycles
 Total Energy, E(TD-HF/TD-DFT) =  -1069.08843437
 SCF Done:  E(RPBE1PBE) =  -1069.15692823     A.U. after   10 cycles
 Total Energy, E(TD-HF/TD-DFT) =  -1069.08844384
 SCF Done:  E(RPBE1PBE) =  -1069.15695330     A.U. after    8 cycles
 Total Energy, E(TD-HF/TD-DFT) =  -1069.08844625
 SCF Done:  E(RPBE1PBE) =  -1069.15696741     A.U. after    7 cycles
 Total Energy, E(TD-HF/TD-DFT) =  -1069.08844655
 SCF Done:  E(RPBE1PBE) =  -1069.15697701     A.U. after    7 cycles
 Total Energy, E(TD-HF/TD-DFT) =  -1069.08844661
 SCF Done:  E(RPBE1PBE) =  -1069.15698907     A.U. after    7 cycles

 Excitation energies and oscillator strengths:

 Excited State   1:      Singlet-A      1.8651 eV  664.75 nm  f=0.0203  <S**2>=0.000
      85 -> 86        -0.70583
 This state for optimization and/or second-order correction.
 Total Energy, E(TD-HF/TD-DFT) =  -1069.08844659
 Copying the excited state density for this state as the 1-particle RhoCI density.

 Excited State   2:      Singlet-A      3.0788 eV  402.71 nm  f=0.0995  <S**2>=0.000
      85 -> 87        -0.70383

 Excited State   3:      Singlet-A      3.2593 eV  380.40 nm  f=0.2118  <S**2>=0.000
      82 -> 86         0.11124
      83 -> 86        -0.15227
      84 -> 86        -0.67592

 Excited State   4:      Singlet-A      3.3735 eV  367.52 nm  f=0.0001  <S**2>=0.000
      80 -> 86         0.12270
      81 -> 86         0.68455

 Excited State   5:      Singlet-A      3.6863 eV  336.34 nm  f=0.0321  <S**2>=0.000
      82 -> 86         0.17576
      83 -> 86        -0.65815
      84 -> 86         0.18110

 Optimization completed.
    -- Stationary point found.

                         Standard orientation:
 ---------------------------------------------------------------------
 Center     Atomic      Atomic             Coordinates (Angstroms)
 Number     Number       Type             X           Y           Z
 ---------------------------------------------------------------------
      1          6           0        4.161313   -2.486413   -0.419355
      2          6           0        3.025015   -2.060990   -1.056395
      3          6           0        2.479978   -0.829352   -0.642432
      4          6           0        3.093984   -0.035494    0.363587
      5          6           0        4.227467   -0.486663    0.986778
      6          6           0        4.756264   -1.716395    0.595990
      7          1           0        2.548846   -2.656736   -1.822426
      8          1           0        5.651208   -2.087478    1.078280
      9          1           0        4.606233   -3.434551   -0.691062
     10          1           0        4.713120    0.097040    1.758145
     11          7           0        1.363564   -0.242162   -1.073310
     12          6           0        0.984025    0.893587   -0.151071
     13          6           0        2.363654    1.269370    0.474276
     14          6           0        0.513392   -0.752055   -2.112892
     15          1           0       -0.095943    0.060894   -2.499435
     16          1           0       -0.143472   -1.532867   -1.719029
     17          6           0        3.111817    2.287702   -0.396631
     18          1           0        3.139280    1.988350   -1.446408
     19          1           0        4.139809    2.371644   -0.042607
     20          1           0        2.646398    3.271096   -0.319458
     21          6           0        2.237423    1.796948    1.892978
     22          1           0        1.814803    1.053621    2.565688
     23          1           0        1.600340    2.683172    1.906803
     24          1           0        3.222244    2.087770    2.262850
     25          8           0        0.224331    0.331087    0.880446
     26          6           0       -1.110777    0.098126    0.634897
     27          6           0        0.254240    1.974995   -0.875683
     28          6           0       -1.079424    1.972472   -0.901471
     29          6           0       -1.824314    0.928977   -0.230193
     30          1           0        0.830253    2.722427   -1.401421
     31          1           0       -1.622854    2.741664   -1.439400
     32          6           0       -3.181871    0.718144   -0.418971
     33          6           0       -1.747477   -0.915343    1.331605
     34          6           0       -3.098473   -1.131233    1.141910
     35          6           0       -3.831487   -0.320819    0.257258
     36          1           0       -3.748449    1.345781   -1.092880
     37          1           0       -1.176688   -1.535527    2.012512
     38          1           0       -3.612622   -1.926737    1.661542
     39          7           0       -5.187200   -0.549465    0.053684
     40          8           0       -5.826731    0.197194   -0.756173
     41          8           0       -5.757109   -1.500385    0.680458
     42          1           0        1.120514   -1.164733   -2.917260
 ---------------------------------------------------------------------

 The electronic state is 1-A.
 Alpha  occ. eigenvalues --  -19.26689 -19.24615 -19.24606 -14.62870 -14.40883
 Alpha  occ. eigenvalues --  -10.34142 -10.32293 -10.29688 -10.26766 -10.26627
 Alpha  occ. eigenvalues --  -10.26483 -10.26202 -10.25497 -10.25365 -10.25172
 Alpha  occ. eigenvalues --  -10.25000 -10.24631 -10.22399 -10.22319 -10.22310
 Alpha  occ. eigenvalues --  -10.21903 -10.21724 -10.21322 -10.21288  -1.23756
 Alpha  occ. eigenvalues --   -1.13920  -1.06256  -1.00061  -0.93375  -0.87911
 Alpha  occ. eigenvalues --   -0.87000  -0.86660  -0.83742  -0.79760  -0.77043
 Alpha  occ. eigenvalues --   -0.76634  -0.76144  -0.72220  -0.71073  -0.68308
 Alpha  occ. eigenvalues --   -0.67531  -0.65538  -0.63959  -0.61048  -0.58962
 Alpha  occ. eigenvalues --   -0.58457  -0.58227  -0.56115  -0.54930  -0.54745
 Alpha  occ. eigenvalues --   -0.52882  -0.52262  -0.51408  -0.49453  -0.48837
 Alpha  occ. eigenvalues --   -0.47969  -0.46999  -0.46544  -0.45632  -0.45335
 Alpha  occ. eigenvalues --   -0.45024  -0.44686  -0.43918  -0.43171  -0.42161
 Alpha  occ. eigenvalues --   -0.41537  -0.41004  -0.39948  -0.39202  -0.38612
 Alpha  occ. eigenvalues --   -0.38383  -0.37071  -0.36346  -0.35253  -0.34788
 Alpha  occ. eigenvalues --   -0.34281  -0.34143  -0.33332  -0.33110  -0.31751
 Alpha  occ. eigenvalues --   -0.31531  -0.28645  -0.26759  -0.26017  -0.20261
 Alpha virt. eigenvalues --   -0.11381  -0.06027  -0.01259  -0.00546   0.01090
 Alpha virt. eigenvalues --    0.03120   0.04374   0.06080   0.06553   0.06938
 Alpha virt. eigenvalues --    0.07235   0.08361   0.09041   0.09979   0.10164

 Mulliken charges:
               1
     1  C   -0.123039
     2  C   -0.333917
     3  C    0.107777
     4  C   -0.100193
     5  C   -0.239616
     6  C   -0.187061
     7  H    0.138691
     8  H    0.127113
     9  H    0.132758
    10  H    0.128496
    11  N   -0.000653
    12  C    0.390742
    13  C    0.276612
    14  C   -0.351250
    15  H    0.164508
    16  H    0.139148
    17  C   -0.458236
    18  H    0.153759
    19  H    0.146846
    20  H    0.142132
    21  C   -0.428918
    22  H    0.143194
    23  H    0.137728
    24  H    0.140523
    25  O   -0.246933
    26  C    0.214959
    27  C   -0.308867
    28  C   -0.222244
    29  C    0.236578
    30  H    0.158645
    31  H    0.149847
    32  C   -0.293766
    33  C   -0.255422
    34  C   -0.134774
    35  C    0.105812
    36  H    0.167469
    37  H    0.148185
    38  H    0.167679
    39  N    0.451034
    40  O   -0.369087
    41  O   -0.369737
    42  H    0.153475
 Sum of Mulliken charges =  -0.00000

 Dipole moment (field-independent basis, Debye):
    X=              5.4607    Y=              3.2113    Z=             -1.1128  Tot=              6.4320
 Quadrupole moment (field-independent basis, Debye-Ang):
   XX=           -195.3371   YY=           -131.0948   ZZ=           -133.6695
   XY=             -2.5060   XZ=              0.1614   YZ=             -1.1051

 Normal termination of Gaussian 16 at Wed May  8 15:17:33 2024.
