 Gaussian 16, Revision A.03,
 Gaussian 16:  ES64L-G16RevA.03 25-Dec-2016

 ----------------------------------------------------------------------
 #P M062X/def2TZVP opt freq=(noraman) scrf=(pcm,solvent=acetone) gfinpu
 t integral=ultrafine
 ----------------------------------------------------------------------

 -----
 TITLE
 -----
 Symbolic Z-matrix:
 Charge =  0 Multiplicity = 1

 SCF Done:  E(RM062X) =  -1069.89792763     A.U. after   14 cycles
 SCF Done:  E(RM062X) =  -1069.91118130     A.U. after   13 cycles
 SCF Done:  E(RM062X) =  -1069.91577885     A.U. after   13 cycles
 SCF Done:  E(RM062X) =  -1069.91056846     A.U. after   13 cycles
 SCF Done:  E(RM062X) =  -1069.91918339     A.U. after   12 cycles
 SCF Done:  E(RM062X) =  -1069.91984250     A.U. after   12 cycles
 SCF Done:  E(RM062X) =  -1069.91997722     A.U. after   11 cycles
 SCF Done:  E(RM062X) =  -1069.92000968     A.U. after   11 cycles
 SCF Done:  E(RM062X) =  -1069.92002534     A.U. after   10 cycles
 SCF Done:  E(RM062X) =  -1069.92004212     A.U. after   11 cycles
 SCF Done:  E(RM062X) =  -1069.91984751     A.U. after   12 cycles
 SCF Done:  E(RM062X) =  -1069.92017601     A.U. after    8 cycles
 SCF Done:  E(RM062X) =  -1069.92019880     A.U. after   11 cycles
 SCF Done:  E(RM062X) =  -1069.92021015     A.U. after   10 cycles
 SCF Done:  E(RM062X) =  -1069.92021270     A.U. after   10 cycles
 SCF Done:  E(RM062X) =  -1069.92021256     A.U. after    9 cycles
 SCF Done:  E(RM062X) =  -1069.92021297     A.U. after    8 cycles
 SCF Done:  E(RM062X) =  -1069.92021291     A.U. after    8 cycles
 SCF Done:  E(RM062X) =  -1069.92021308     A.U. after    8 cycles
 Optimization completed.
    -- Stationary point found.
 Normal termination of Gaussian 16 at Sun Mar 10 08:28:08 2024.

 --------------------------------------------------------------------
 #P Geom=AllCheck Guess=TCheck SCRF=Check GenChk RM062X/def2TZVP Freq
 --------------------------------------------------------------------

 Structure from the checkpoint file:  "sp1_gs_m062x.chk"
 -----
 TITLE
 -----
 Charge =  0 Multiplicity = 1

                         Standard orientation:
 ---------------------------------------------------------------------
 Center     Atomic      Atomic             Coordinates (Angstroms)
 Number     Number       Type             X           Y           Z
 ---------------------------------------------------------------------
      1          6           0        4.492440   -2.225933   -0.356522
      2          6           0        3.379871   -1.824670   -1.098826
      3          6           0        2.715013   -0.678056   -0.696610
      4          6           0        3.129284    0.045293    0.423007
      5          6           0        4.226691   -0.358718    1.149693
      6          6           0        4.915890   -1.509369    0.753115
      7          1           0        3.050881   -2.399683   -1.954108
      8          1           0        5.776316   -1.844560    1.316655
      9          1           0        5.026616   -3.120195   -0.651497
     10          1           0        4.549723    0.201565    2.019624
     11          7           0        1.598110   -0.069991   -1.278388
     12          6           0        1.006119    0.802482   -0.284439
     13          6           0        2.233191    1.253720    0.577565
     14          6           0        0.726617   -0.852740   -2.130416
     15          1           0       -0.080850   -0.221116   -2.497643
     16          1           0        0.299382   -1.711722   -1.599774
     17          6           0        2.935416    2.461693   -0.058660
     18          1           0        3.137308    2.293901   -1.117660
     19          1           0        3.886728    2.619523    0.449614
     20          1           0        2.337945    3.368108    0.050933
     21          6           0        1.856380    1.583062    2.015807
     22          1           0        1.473302    0.712361    2.542910
     23          1           0        1.098273    2.369001    2.039319
     24          1           0        2.736652    1.951077    2.544823
     25          8           0        0.179778   -0.004678    0.600933
     26          6           0       -1.145532   -0.111580    0.436247
     27          6           0        0.213297    1.904721   -0.916546
     28          6           0       -1.116553    1.908215   -0.936806
     29          6           0       -1.866481    0.832557   -0.309207
     30          1           0        0.779074    2.677471   -1.416635
     31          1           0       -1.665418    2.697922   -1.434796
     32          6           0       -3.242851    0.701615   -0.407890
     33          6           0       -1.793165   -1.166141    1.078665
     34          6           0       -3.162943   -1.290744    0.975906
     35          6           0       -3.868839   -0.354688    0.230320
     36          1           0       -3.822422    1.417333   -0.973835
     37          1           0       -1.207493   -1.873035    1.649669
     38          1           0       -3.686939   -2.100036    1.461897
     39          7           0       -5.317337   -0.486463    0.118927
     40          8           0       -5.918870    0.336615   -0.540820
     41          8           0       -5.853961   -1.413173    0.691205
     42          1           0        1.286882   -1.217168   -2.990226
 ---------------------------------------------------------------------

 SCF Done:  E(RM062X) =  -1069.92021308     A.U. after    1 cycles

 The electronic state is 1-A.
 Alpha  occ. eigenvalues --  -19.67727 -19.67038 -19.67026 -15.00739 -14.77122
 Alpha  occ. eigenvalues --  -10.65405 -10.63339 -10.60427 -10.57822 -10.57563
 Alpha  occ. eigenvalues --  -10.57388 -10.57202 -10.56741 -10.56568 -10.56386
 Alpha  occ. eigenvalues --  -10.56112 -10.55866 -10.54470 -10.54297 -10.54287
 Alpha  occ. eigenvalues --  -10.54128 -10.53615 -10.53169 -10.52775  -1.38133
 Alpha  occ. eigenvalues --   -1.22417  -1.19210  -1.08352  -1.00513  -0.96103
 Alpha  occ. eigenvalues --   -0.94170  -0.93318  -0.90371  -0.86822  -0.84402
 Alpha  occ. eigenvalues --   -0.83729  -0.82565  -0.79296  -0.77861  -0.74591
 Alpha  occ. eigenvalues --   -0.73705  -0.71838  -0.70454  -0.67600  -0.66403
 Alpha  occ. eigenvalues --   -0.64927  -0.64014  -0.63928  -0.62299  -0.60715
 Alpha  occ. eigenvalues --   -0.59385  -0.57940  -0.57137  -0.55067  -0.54313
 Alpha  occ. eigenvalues --   -0.53271  -0.52372  -0.51761  -0.51082  -0.50643
 Alpha  occ. eigenvalues --   -0.50451  -0.50119  -0.49128  -0.48409  -0.47367
 Alpha  occ. eigenvalues --   -0.46707  -0.46035  -0.45125  -0.44331  -0.44083
 Alpha  occ. eigenvalues --   -0.43547  -0.42169  -0.41044  -0.40624  -0.40358
 Alpha  occ. eigenvalues --   -0.39785  -0.39572  -0.39195  -0.38762  -0.37854
 Alpha  occ. eigenvalues --   -0.36673  -0.32280  -0.30939  -0.29004  -0.26257
 Alpha virt. eigenvalues --   -0.05646  -0.02540   0.01740   0.02692   0.03147
 Alpha virt. eigenvalues --    0.06281   0.07498   0.08249   0.08756   0.09115
 Alpha virt. eigenvalues --    0.09269   0.10288   0.11208   0.11829   0.12227

 Mulliken charges:
               1
     1  C   -0.167313
     2  C   -0.250785
     3  C    0.139686
     4  C   -0.055152
     5  C   -0.206176
     6  C   -0.202150
     7  H    0.176494
     8  H    0.160670
     9  H    0.161957
    10  H    0.171806
    11  N   -0.133899
    12  C    0.195797
    13  C    0.127023
    14  C   -0.433453
    15  H    0.175866
    16  H    0.184388
    17  C   -0.527363
    18  H    0.183274
    19  H    0.168994
    20  H    0.176478
    21  C   -0.477578
    22  H    0.169209
    23  H    0.168143
    24  H    0.167350
    25  O   -0.283643
    26  C    0.134827
    27  C   -0.225302
    28  C   -0.191611
    29  C    0.162357
    30  H    0.196483
    31  H    0.170752
    32  C   -0.171187
    33  C   -0.237606
    34  C   -0.132293
    35  C    0.009048
    36  H    0.200573
    37  H    0.177956
    38  H    0.198500
    39  N    0.504119
    40  O   -0.378541
    41  O   -0.378127
    42  H    0.170432
 Sum of Mulliken charges =  -0.00000

 Dipole moment (field-independent basis, Debye):
    X=              5.8999    Y=              1.9846    Z=             -0.8978  Tot=              6.2892
 Quadrupole moment (field-independent basis, Debye-Ang):
   XX=           -188.1090   YY=           -130.4658   ZZ=           -134.4821
   XY=             -4.3361   XZ=              3.3060   YZ=              0.5642

  Exact polarizability: 446.165  -6.405 306.697  20.715 -19.682 259.748
 Approx polarizability: 374.179  -5.468 300.318  21.767 -24.192 263.404

                      1                      2                      3
                      A                      A                      A
 Frequencies --     22.2249                38.6412                47.2733
 Red. masses --      6.0188                10.3373                 5.6483
 Frc consts  --      0.0018                 0.0091                 0.0074
 IR Inten    --      0.7682                 0.1121                 0.3185

                      4                      5                      6
                      A                      A                      A
 Frequencies --     90.0143               106.8368               119.4723
 Red. masses --      4.3214                 5.6592                 3.6455
 Frc consts  --      0.0206                 0.0381                 0.0307
 IR Inten    --      1.5800                 1.4171                 1.8566

                      7                      8                      9
                      A                      A                      A
 Frequencies --    133.0831               159.5327               185.7646
 Red. masses --      3.1973                 5.9709                 3.4752
 Frc consts  --      0.0334                 0.0895                 0.0707
 IR Inten    --      2.9573                 5.9475                 0.2909

                     10                     11                     12
                      A                      A                      A
 Frequencies --    216.0316               219.9496               235.4109
 Red. masses --      1.4935                 3.1677                 1.8862
 Frc consts  --      0.0411                 0.0903                 0.0616
 IR Inten    --      0.2818                 9.7662                 0.4117

                     13                     14                     15
                      A                      A                      A
 Frequencies --    245.0777               272.7630               275.7944
 Red. masses --      1.8099                 2.0168                 3.9325
 Frc consts  --      0.0640                 0.0884                 0.1762
 IR Inten    --      0.1839                 0.9211                 3.1806

                     16                     17                     18
                      A                      A                      A
 Frequencies --    302.8341               325.7985               329.0405
 Red. masses --      2.4614                 2.8082                 3.7634
 Frc consts  --      0.1330                 0.1756                 0.2401
 IR Inten    --      1.4870                 1.3847                 0.7000

                     19                     20                     21
                      A                      A                      A
 Frequencies --    342.5014               346.9784               379.8276
 Red. masses --      3.3603                 1.2849                 3.6242
 Frc consts  --      0.2322                 0.0911                 0.3081
 IR Inten    --      1.1793                 0.8588                 1.4605

                     22                     23                     24
                      A                      A                      A
 Frequencies --    418.1845               421.6779               438.8932
 Red. masses --      5.3185                 3.1676                 5.2707
 Frc consts  --      0.5480                 0.3318                 0.5982
 IR Inten    --      0.2281                 3.8449                15.8336

                     25                     26                     27
                      A                      A                      A
 Frequencies --    458.2371               491.7225               514.7161
 Red. masses --      3.6031                 3.5588                 4.4253
 Frc consts  --      0.4458                 0.5070                 0.6908
 IR Inten    --      5.0959                 4.8871                20.3853

                     28                     29                     30
                      A                      A                      A
 Frequencies --    538.2710               551.7009               559.3974
 Red. masses --      6.1836                 5.7669                 4.2627
 Frc consts  --      1.0556                 1.0342                 0.7859
 IR Inten    --      4.1868                 3.1731                 8.3626

                     31                     32                     33
                      A                      A                      A
 Frequencies --    564.1120               585.1612               586.8429
 Red. masses --      3.6253                 5.6675                 4.1805
 Frc consts  --      0.6797                 1.1434                 0.8483
 IR Inten    --      1.6282                10.5478                 1.8001

                     34                     35                     36
                      A                      A                      A
 Frequencies --    602.5491               640.7983               650.1177
 Red. masses --      4.4369                 4.2760                 4.2000
 Frc consts  --      0.9491                 1.0345                 1.0459
 IR Inten    --      3.8331                 4.0922                 4.3278

                     37                     38                     39
                      A                      A                      A
 Frequencies --    702.1160               740.9475               771.6956
 Red. masses --      6.6960                 2.5308                 1.3028
 Frc consts  --      1.9448                 0.8186                 0.4571
 IR Inten    --     32.8221                 9.9376               105.7609

                     40                     41                     42
                      A                      A                      A
 Frequencies --    779.0204               792.2307               793.3462
 Red. masses --      3.8225                 3.8637                 3.8482
 Frc consts  --      1.3668                 1.4287                 1.4270
 IR Inten    --      0.7687                28.7552                39.3842

                     43                     44                     45
                      A                      A                      A
 Frequencies --    800.6355               801.5298               840.3549
 Red. masses --      4.8570                 2.3832                 2.7558
 Frc consts  --      1.8344                 0.9021                 1.1466
 IR Inten    --     28.1363                 3.6070                41.3209

                     46                     47                     48
                      A                      A                      A
 Frequencies --    856.1239               872.2443               881.0433
 Red. masses --      5.4616                 2.1645                 3.4637
 Frc consts  --      2.3585                 0.9702                 1.5841
 IR Inten    --    108.6670                18.8405                32.7216

                     49                     50                     51
                      A                      A                      A
 Frequencies --    889.8346               947.4496               955.5863
 Red. masses --      1.5627                 2.4291                 1.5567
 Frc consts  --      0.7290                 1.2847                 0.8375
 IR Inten    --      1.6287                57.7088                26.2340

                     52                     53                     54
                      A                      A                      A
 Frequencies --    961.8341               965.8534               967.7668
 Red. masses --      3.7058                 1.3706                 1.5518
 Frc consts  --      2.0199                 0.7533                 0.8563
 IR Inten    --     38.2427                18.0396                 7.3684

                     55                     56                     57
                      A                      A                      A
 Frequencies --    984.2131              1000.7897              1006.4183
 Red. masses --      3.3604                 1.3547                 1.2973
 Frc consts  --      1.9178                 0.7994                 0.7742
 IR Inten    --    517.1303                 0.2241                 0.9444

                     58                     59                     60
                      A                      A                      A
 Frequencies --   1026.0418              1037.8678              1040.4799
 Red. masses --      1.3460                 1.7363                 2.3336
 Frc consts  --      0.8349                 1.1019                 1.4885
 IR Inten    --     17.7959               128.3505                20.7749

                     61                     62                     63
                      A                      A                      A
 Frequencies --   1056.6104              1088.3904              1120.2365
 Red. masses --      2.1613                 3.0251                 1.8022
 Frc consts  --      1.4216                 2.1113                 1.3325
 IR Inten    --     40.1356                 8.7422               325.7091

                     64                     65                     66
                      A                      A                      A
 Frequencies --   1129.6122              1143.9274              1150.1045
 Red. masses --      1.8132                 1.4904                 1.3553
 Frc consts  --      1.3632                 1.1490                 1.0562
 IR Inten    --     59.9351                19.6955                13.5653

                     67                     68                     69
                      A                      A                      A
 Frequencies --   1153.4414              1172.2834              1177.3257
 Red. masses --      1.3734                 1.4029                 2.0120
 Frc consts  --      1.0766                 1.1359                 1.6431
 IR Inten    --     28.7365                 2.0135                22.7403

                     70                     71                     72
                      A                      A                      A
 Frequencies --   1200.2872              1218.1910              1228.3356
 Red. masses --      1.7950                 2.4133                 1.9458
 Frc consts  --      1.5237                 2.1101                 1.7297
 IR Inten    --     19.3837                64.7362                14.0205

                     73                     74                     75
                      A                      A                      A
 Frequencies --   1253.1823              1276.8741              1290.3056
 Red. masses --      2.5175                 1.7307                 2.3843
 Frc consts  --      2.3294                 1.6625                 2.3388
 IR Inten    --     42.7575                12.5140                30.9129

                     76                     77                     78
                      A                      A                      A
 Frequencies --   1309.0782              1320.0186              1330.5409
 Red. masses --      4.1066                 2.4168                 6.0262
 Frc consts  --      4.1463                 2.4812                 6.2856
 IR Inten    --      7.5215               429.2807               114.0331

                     79                     80                     81
                      A                      A                      A
 Frequencies --   1333.2975              1370.7198              1391.7057
 Red. masses --      2.2675                 7.8605                 3.3958
 Frc consts  --      2.3750                 8.7016                 3.8752
 IR Inten    --    140.9046                86.0868               130.4274

                     82                     83                     84
                      A                      A                      A
 Frequencies --   1393.6632              1413.7451              1418.0145
 Red. masses --      1.3368                 1.2956                 2.1306
 Frc consts  --      1.5298                 1.5256                 2.5241
 IR Inten    --     16.4782                57.3218               155.5941

                     85                     86                     87
                      A                      A                      A
 Frequencies --   1435.1903              1455.7419              1480.8848
 Red. masses --      8.9416                 1.2035                 1.0641
 Frc consts  --     10.8513                 1.5027                 1.3749
 IR Inten    --    835.9247                 4.1171                 2.3547

                     88                     89                     90
                      A                      A                      A
 Frequencies --   1483.1420              1487.7952              1496.6294
 Red. masses --      1.0531                 1.0929                 2.0059
 Frc consts  --      1.3648                 1.4253                 2.6472
 IR Inten    --      8.9954                40.8788                12.7918

                     91                     92                     93
                      A                      A                      A
 Frequencies --   1498.2660              1500.1824              1506.5351
 Red. masses --      1.5026                 1.2617                 1.0857
 Frc consts  --      1.9873                 1.6730                 1.4519
 IR Inten    --      4.2266                32.9478                72.7294

                     94                     95                     96
                      A                      A                      A
 Frequencies --   1512.4018              1529.6077              1531.6648
 Red. masses --      1.6015                 3.0926                 3.2892
 Frc consts  --      2.1582                 4.2632                 4.5463
 IR Inten    --     69.2179               275.5364                 7.7419

                     97                     98                     99
                      A                      A                      A
 Frequencies --   1612.6478              1650.0674              1669.1509
 Red. masses --     11.7902                 7.4972                 7.1851
 Frc consts  --     18.0655                12.0269                11.7944
 IR Inten    --    441.1540               189.4801                 3.1309

                    100                    101                    102
                      A                      A                      A
 Frequencies --   1678.7039              1685.6329              1737.6851
 Red. masses --      7.0778                 8.4487                 7.7319
 Frc consts  --     11.7516                14.1438                13.7555
 IR Inten    --     89.4319               166.9105                45.8438

                    103                    104                    105
                      A                      A                      A
 Frequencies --   3026.5852              3061.0100              3065.1729
 Red. masses --      1.0493                 1.0347                 1.0378
 Frc consts  --      5.6633                 5.7121                 5.7449
 IR Inten    --     67.6773                21.2462                34.6063

                    106                    107                    108
                      A                      A                      A
 Frequencies --   3122.4970              3130.9832              3139.3979
 Red. masses --      1.0856                 1.1015                 1.1034
 Frc consts  --      6.2365                 6.3618                 6.4074
 IR Inten    --     26.4712                18.9454                34.1709

                    109                    110                    111
                      A                      A                      A
 Frequencies --   3144.2948              3159.5198              3166.3013
 Red. masses --      1.1028                 1.1034                 1.1009
 Frc consts  --      6.4236                 6.4899                 6.5030
 IR Inten    --     27.6622                10.7138                18.3317

                    112                    113                    114
                      A                      A                      A
 Frequencies --   3197.4089              3205.1200              3209.5928
 Red. masses --      1.0883                 1.0890                 1.0905
 Frc consts  --      6.5555                 6.5915                 6.6190
 IR Inten    --      6.5190                 9.1956                 6.7508

                    115                    116                    117
                      A                      A                      A
 Frequencies --   3223.7746              3229.7647              3235.4972
 Red. masses --      1.0926                 1.0966                 1.0912
 Frc consts  --      6.6902                 6.7394                 6.7303
 IR Inten    --     18.4803                11.2968                 0.1583

                    118                    119                    120
                      A                      A                      A
 Frequencies --   3241.1171              3245.5214              3258.6598
 Red. masses --      1.0922                 1.0945                 1.0942
 Frc consts  --      6.7601                 6.7924                 6.8456
 IR Inten    --      4.4008                 0.9524                 6.6994

 - Thermochemistry -
 -------------------
 Temperature   298.150 Kelvin.  Pressure   1.00000 Atm.
 Atom     1 has atomic number  6 and mass  12.00000

 Molecular mass:   322.13174 amu.
 Principal axes and moments of inertia in atomic units:
                           1         2         3
     Eigenvalues --  2981.68747********************
           X            0.99999   0.00056   0.00378
           Y           -0.00068   0.99955   0.02994
           Z           -0.00376  -0.02994   0.99954
 This molecule is an asymmetric top.
 Rotational symmetry number  1.
 Warning -- assumption of classical behavior for rotation
           may cause significant error
 Rotational temperatures (Kelvin)      0.02905     0.00628     0.00594
 Rotational constants (GHZ):           0.60528     0.13094     0.12370
 Zero-point vibrational energy     889942.1 (Joules/Mol)
                                  212.70126 (Kcal/Mol)
 Warning -- explicit consideration of  34 degrees of freedom as
           vibrations may cause significant error
 Vibrational temperatures:     31.98    55.60    68.02   129.51   153.71
          (Kelvin)            171.89   191.48   229.53   267.27   310.82
                              316.46   338.70   352.61   392.45   396.81
                              435.71   468.75   473.42   492.78   499.22
                              546.49   601.67   606.70   631.47   659.30
                              707.48   740.56   774.45   793.77   804.85
                              811.63   841.92   844.34   866.93   921.97
                              935.37  1010.19  1066.06  1110.30  1120.84
                             1139.84  1141.45  1151.94  1153.22  1209.08
                             1231.77  1254.96  1267.62  1280.27  1363.17
                             1374.88  1383.86  1389.65  1392.40  1416.06
                             1439.91  1448.01  1476.25  1493.26  1497.02
                             1520.23  1565.95  1611.77  1625.26  1645.86
                             1654.74  1659.54  1686.65  1693.91  1726.95
                             1752.71  1767.30  1803.05  1837.14  1856.46
                             1883.47  1899.21  1914.35  1918.32  1972.16
                             2002.35  2005.17  2034.06  2040.21  2064.92
                             2094.49  2130.66  2133.91  2140.61  2153.32
                             2155.67  2158.43  2167.57  2176.01  2200.76
                             2203.72  2320.24  2374.08  2401.54  2415.28
                             2425.25  2500.14  4354.58  4404.11  4410.10
                             4492.58  4504.79  4516.89  4523.94  4545.84
                             4555.60  4600.36  4611.45  4617.89  4638.29
                             4646.91  4655.16  4663.24  4669.58  4688.48

 Zero-point correction=                           0.338961 (Hartree/Particle)
 Thermal correction to Energy=                    0.358610
 Thermal correction to Enthalpy=                  0.359555
 Thermal correction to Gibbs Free Energy=         0.290987
 Sum of electronic and zero-point Energies=          -1069.581252
 Sum of electronic and thermal Energies=             -1069.561603
 Sum of electronic and thermal Enthalpies=           -1069.560659
 Sum of electronic and thermal Free Energies=        -1069.629226

                     E (Thermal)             CV                S
                      KCal/Mol        Cal/Mol-Kelvin    Cal/Mol-Kelvin
 Total                  225.031             79.468            144.312
 Electronic               0.000              0.000              0.000
 Translational            0.889              2.981             43.205
 Rotational               0.889              2.981             34.749
 Vibrational            223.254             73.506             66.358
 Vibration     1          0.593              1.985              6.425
 Vibration     2          0.594              1.981              5.328
 Vibration     3          0.595              1.979              4.928
 Vibration     4          0.602              1.956              3.660
 Vibration     5          0.606              1.944              3.326
 Vibration     6          0.609              1.933              3.109
 Vibration     7          0.613              1.920              2.901
 Vibration     8          0.621              1.892              2.555
 Vibration     9          0.632              1.859              2.270
 Vibration    10          0.645              1.817              1.992
 Vibration    11          0.647              1.811              1.960
 Vibration    12          0.655              1.787              1.837
 Vibration    13          0.660              1.771              1.766
 Vibration    14          0.676              1.724              1.579
 Vibration    15          0.677              1.718              1.560
 Vibration    16          0.694              1.668              1.401
 Vibration    17          0.710              1.624              1.281
 Vibration    18          0.712              1.617              1.265
 Vibration    19          0.722              1.591              1.200
 Vibration    20          0.725              1.581              1.180
 Vibration    21          0.750              1.513              1.040
 Vibration    22          0.781              1.431              0.898
 Vibration    23          0.784              1.423              0.886
 Vibration    24          0.799              1.385              0.830
 Vibration    25          0.816              1.343              0.771
 Vibration    26          0.847              1.268              0.679
 Vibration    27          0.870              1.217              0.622
 Vibration    28          0.893              1.165              0.569
 Vibration    29          0.907              1.136              0.541
 Vibration    30          0.915              1.119              0.525
 Vibration    31          0.920              1.109              0.516
 Vibration    32          0.942              1.063              0.476
 Vibration    33          0.944              1.060              0.473
 Vibration    34          0.961              1.026              0.445

 Optimization completed.
    -- Stationary point found.
 Normal termination of Gaussian 16 at Sun Mar 10 11:01:03 2024.
