 Gaussian 16, Revision A.03,
 Gaussian 16:  ES64L-G16RevA.03 25-Dec-2016

 ----------------------------------------------------------------------
 #P CAM-B3LYP/def2TZVP opt freq=(noraman) scrf=(pcm,solvent=acetone) Em
 piricalDispersion=GD3BJ gfinput
 ----------------------------------------------------------------------

 -----
 TITLE
 -----
 Symbolic Z-matrix:
 Charge =  0 Multiplicity = 1

 SCF Done:  E(RCAM-B3LYP) =  -1069.84383920     A.U. after   15 cycles
 SCF Done:  E(RCAM-B3LYP) =  -1069.85779243     A.U. after   13 cycles
 SCF Done:  E(RCAM-B3LYP) =  -1069.86235586     A.U. after   13 cycles
 SCF Done:  E(RCAM-B3LYP) =  -1069.85701360     A.U. after   15 cycles
 SCF Done:  E(RCAM-B3LYP) =  -1069.86585295     A.U. after   13 cycles
 SCF Done:  E(RCAM-B3LYP) =  -1069.86665822     A.U. after   12 cycles
 SCF Done:  E(RCAM-B3LYP) =  -1069.86681316     A.U. after   11 cycles
 SCF Done:  E(RCAM-B3LYP) =  -1069.86684208     A.U. after   11 cycles
 SCF Done:  E(RCAM-B3LYP) =  -1069.86684911     A.U. after   10 cycles
 SCF Done:  E(RCAM-B3LYP) =  -1069.86685128     A.U. after    9 cycles
 SCF Done:  E(RCAM-B3LYP) =  -1069.86703177     A.U. after   11 cycles
 SCF Done:  E(RCAM-B3LYP) =  -1069.86703519     A.U. after   10 cycles
 SCF Done:  E(RCAM-B3LYP) =  -1069.86703554     A.U. after    8 cycles
 SCF Done:  E(RCAM-B3LYP) =  -1069.86703628     A.U. after    9 cycles
 SCF Done:  E(RCAM-B3LYP) =  -1069.86703623     A.U. after    8 cycles
 SCF Done:  E(RCAM-B3LYP) =  -1069.86703629     A.U. after    7 cycles
 SCF Done:  E(RCAM-B3LYP) =  -1069.86703620     A.U. after    9 cycles
 SCF Done:  E(RCAM-B3LYP) =  -1069.86703630     A.U. after    5 cycles
 SCF Done:  E(RCAM-B3LYP) =  -1069.86703621     A.U. after    8 cycles
 Optimization completed on the basis of negligible forces.
    -- Stationary point found.

 1\1\GINC-N190\FOpt\RCAM-B3LYP\def2TZVP\C19H18N2O3\ARTD\10-Mar-2024\0\\
 #P CAM-B3LYP/def2TZVP opt freq=(noraman) scrf=(pcm,solvent=acetone) Em
 piricalDispersion=GD3BJ gfinput\\TITLE\\0,1\C,-5.7756274772,1.75415628
 82,-1.467782373\C,-5.0294836795,1.0552593658,-0.5212709834\C,-3.920768
 9907,1.6799349566,0.0173307896\C,-3.5516356093,2.9640507486,-0.3779875
 293\C,-4.2921637654,3.6437205026,-1.3135691106\C,-5.4176620748,3.03019
 76655,-1.865355017\H,-5.3122561232,0.0537393822,-0.2290068508\H,-6.007
 2722341,3.5511565357,-2.6073045079\H,-6.6460756303,1.281951256,-1.9043

 Normal termination of Gaussian 16 at Sun Mar 10 15:36:50 2024.

 ----------------------------------------------------------------------
 #P Geom=AllCheck Guess=TCheck SCRF=Check GenChk RCAM-B3LYP/def2TZVP Fr
 eq
 ----------------------------------------------------------------------

 Structure from the checkpoint file:  "sp1_gs_b3lyp.chk"
 -----
 TITLE
 -----
 Charge =  0 Multiplicity = 1

                         Standard orientation:
 ---------------------------------------------------------------------
 Center     Atomic      Atomic             Coordinates (Angstroms)
 Number     Number       Type             X           Y           Z
 ---------------------------------------------------------------------
      1          6           0        4.970438   -1.538666   -0.596848
      2          6           0        4.048310   -0.826629   -1.360885
      3          6           0        3.047883   -0.143825   -0.695689
      4          6           0        2.954873   -0.171886    0.694293
      5          6           0        3.867169   -0.878760    1.438397
      6          6           0        4.886971   -1.571049    0.783902
      7          1           0        4.116813   -0.820209   -2.439628
      8          1           0        5.609318   -2.136589    1.356534
      9          1           0        5.760178   -2.082855   -1.098238
     10          1           0        3.798058   -0.904799    2.518781
     11          7           0        2.030209    0.644012   -1.228832
     12          6           0        1.005996    0.791846   -0.232987
     13          6           0        1.797718    0.702783    1.117950
     14          6           0        1.663996    0.539738   -2.621572
     15          1           0        0.878960    1.259966   -2.841449
     16          1           0        1.305098   -0.460580   -2.883311
     17          6           0        2.338155    2.080776    1.516813
     18          1           0        2.904956    2.537989    0.706327
     19          1           0        3.002647    1.967727    2.372436
     20          1           0        1.529826    2.754274    1.801962
     21          6           0        0.956804    0.137559    2.251786
     22          1           0        0.635217   -0.881063    2.049692
     23          1           0        0.074680    0.756532    2.423985
     24          1           0        1.539137    0.134507    3.172893
     25          8           0        0.167511   -0.405328   -0.331660
     26          6           0       -1.162064   -0.382136   -0.218082
     27          6           0        0.199016    2.034923   -0.411656
     28          6           0       -1.125282    2.049904   -0.376540
     29          6           0       -1.878852    0.819903   -0.216992
     30          1           0        0.764940    2.943517   -0.554467
     31          1           0       -1.671541    2.977783   -0.484259
     32          6           0       -3.254952    0.779034   -0.106041
     33          6           0       -1.818948   -1.604709   -0.127981
     34          6           0       -3.189588   -1.637197   -0.013902
     35          6           0       -3.894225   -0.442751    0.000265
     36          1           0       -3.830573    1.692430   -0.107204
     37          1           0       -1.237652   -2.515384   -0.140292
     38          1           0       -3.717331   -2.574360    0.067824
     39          7           0       -5.339223   -0.474806    0.123737
     40          8           0       -5.942362    0.583171    0.135606
     41          8           0       -5.888031   -1.558367    0.210468
     42          1           0        2.522916    0.777702   -3.246626
 ---------------------------------------------------------------------

 SCF Done:  E(RCAM-B3LYP) =  -1069.86703621     A.U. after    1 cycles

 The electronic state is 1-A.
 Alpha  occ. eigenvalues --  -19.24694 -19.23942 -19.23938 -14.64153 -14.40991
 Alpha  occ. eigenvalues --  -10.35873 -10.33805 -10.30737 -10.28305 -10.27953
 Alpha  occ. eigenvalues --  -10.27851 -10.27608 -10.27313 -10.27098 -10.26883
 Alpha  occ. eigenvalues --  -10.26446 -10.26319 -10.24896 -10.24759 -10.24676
 Alpha  occ. eigenvalues --  -10.24472 -10.23996 -10.23726 -10.23569  -1.33208
 Alpha  occ. eigenvalues --   -1.18073  -1.15041  -1.05973  -0.98426  -0.94239
 Alpha  occ. eigenvalues --   -0.92477  -0.91332  -0.88781  -0.85377  -0.83011
 Alpha  occ. eigenvalues --   -0.82398  -0.81234  -0.77973  -0.76792  -0.73770
 Alpha  occ. eigenvalues --   -0.72692  -0.70997  -0.69526  -0.66729  -0.65130
 Alpha  occ. eigenvalues --   -0.64385  -0.63783  -0.62815  -0.61525  -0.59840
 Alpha  occ. eigenvalues --   -0.58471  -0.57481  -0.57434  -0.55175  -0.53682
 Alpha  occ. eigenvalues --   -0.53144  -0.52869  -0.51700  -0.51129  -0.50825
 Alpha  occ. eigenvalues --   -0.50370  -0.49714  -0.48968  -0.48805  -0.47787
 Alpha  occ. eigenvalues --   -0.46857  -0.45909  -0.45454  -0.44402  -0.44082
 Alpha  occ. eigenvalues --   -0.43861  -0.42577  -0.41565  -0.41166  -0.39888
 Alpha  occ. eigenvalues --   -0.39636  -0.39328  -0.38888  -0.38387  -0.37623
 Alpha  occ. eigenvalues --   -0.36664  -0.32382  -0.31186  -0.28803  -0.26349
 Alpha virt. eigenvalues --   -0.05093  -0.01166   0.03025   0.03863   0.04504
 Alpha virt. eigenvalues --    0.07058   0.08731   0.09261   0.09518   0.09910
 Alpha virt. eigenvalues --    0.10223   0.10910   0.12282   0.12436   0.13329

 Mulliken charges:
               1
     1  C   -0.138068
     2  C   -0.271896
     3  C    0.148317
     4  C   -0.059177
     5  C   -0.211876
     6  C   -0.180739
     7  H    0.147239
     8  H    0.139146
     9  H    0.142876
    10  H    0.143336
    11  N   -0.145384
    12  C    0.453628
    13  C    0.179354
    14  C   -0.344620
    15  H    0.152073
    16  H    0.142078
    17  C   -0.447231
    18  H    0.147757
    19  H    0.141311
    20  H    0.144910
    21  C   -0.445153
    22  H    0.147132
    23  H    0.143121
    24  H    0.143065
    25  O   -0.295307
    26  C    0.194025
    27  C   -0.366802
    28  C   -0.101107
    29  C    0.130066
    30  H    0.167048
    31  H    0.157495
    32  C   -0.227283
    33  C   -0.263906
    34  C   -0.125609
    35  C    0.075327
    36  H    0.176043
    37  H    0.150067
    38  H    0.176344
    39  N    0.428747
    40  O   -0.346592
    41  O   -0.346759
    42  H    0.147005
 Sum of Mulliken charges =  -0.00000

 Dipole moment (field-independent basis, Debye):
    X=              6.0950    Y=              2.3825    Z=             -0.8245  Tot=              6.5958
 Quadrupole moment (field-independent basis, Debye-Ang):
   XX=           -192.8066   YY=           -133.6418   ZZ=           -131.5079
   XY=             -5.0621   XZ=              1.6266   YZ=             -0.8332

  Exact polarizability: 450.318 -17.509 303.818  -6.170  -6.608 256.269
 Approx polarizability: 362.566 -16.316 298.764  -6.699  -7.603 246.252

                      1                      2                      3
                      A                      A                      A
 Frequencies --     17.2434                40.9016                46.7431
 Red. masses --      5.7611                 5.2066                11.7847
 Frc consts  --      0.0010                 0.0051                 0.0152
 IR Inten    --      0.8051                 0.3143                 0.0694

                      4                      5                      6
                      A                      A                      A
 Frequencies --     88.2688               108.5525               115.8153
 Red. masses --      4.6518                 5.7523                 3.4782
 Frc consts  --      0.0214                 0.0399                 0.0275
 IR Inten    --      1.8421                 1.2893                 3.1307

                      7                      8                      9
                      A                      A                      A
 Frequencies --    125.8473               157.7021               170.4257
 Red. masses --      3.1196                 3.6404                 1.6695
 Frc consts  --      0.0291                 0.0533                 0.0286
 IR Inten    --      2.7841                 4.1254                 1.1763

                     10                     11                     12
                      A                      A                      A
 Frequencies --    192.3616               234.8315               235.8069
 Red. masses --      2.2080                 2.8053                 1.6704
 Frc consts  --      0.0481                 0.0911                 0.0547
 IR Inten    --      0.5166                 3.7219                 0.4791

                     13                     14                     15
                      A                      A                      A
 Frequencies --    244.3887               268.1344               272.1814
 Red. masses --      3.4719                 2.4621                 2.7593
 Frc consts  --      0.1222                 0.1043                 0.1204
 IR Inten    --      5.3809                 0.5756                 7.4399

                     16                     17                     18
                      A                      A                      A
 Frequencies --    289.8296               311.3833               325.1445
 Red. masses --      2.2416                 1.3244                 3.5770
 Frc consts  --      0.1109                 0.0757                 0.2228
 IR Inten    --      0.2740                 0.6538                 0.7081

                     19                     20                     21
                      A                      A                      A
 Frequencies --    332.7095               350.0158               369.5812
 Red. masses --      3.9782                 3.2242                 3.7944
 Frc consts  --      0.2595                 0.2327                 0.3054
 IR Inten    --      3.8173                 2.1309                 1.2438

                     22                     23                     24
                      A                      A                      A
 Frequencies --    414.8534               426.0123               435.1348
 Red. masses --      5.3858                 3.3955                 4.6175
 Frc consts  --      0.5461                 0.3631                 0.5151
 IR Inten    --      0.4850                 4.8998                 8.8053

                     25                     26                     27
                      A                      A                      A
 Frequencies --    467.8861               496.5663               516.8976
 Red. masses --      3.8590                 3.3148                 4.6037
 Frc consts  --      0.4977                 0.4816                 0.7247
 IR Inten    --      5.0560                 5.2324                26.4019

                     28                     29                     30
                      A                      A                      A
 Frequencies --    535.8492               552.8994               563.6642
 Red. masses --      6.2171                 5.5991                 4.2071
 Frc consts  --      1.0518                 1.0085                 0.7875
 IR Inten    --      6.8444                 2.7910                11.8065

                     31                     32                     33
                      A                      A                      A
 Frequencies --    570.8834               582.3835               589.4268
 Red. masses --      3.5372                 4.7249                 5.4659
 Frc consts  --      0.6792                 0.9442                 1.1189
 IR Inten    --      2.3595                 1.8536                 4.1759

                     34                     35                     36
                      A                      A                      A
 Frequencies --    601.7535               650.0925               654.3964
 Red. masses --      4.0429                 5.2826                 3.5288
 Frc consts  --      0.8625                 1.3154                 0.8903
 IR Inten    --      4.3743                 5.6214                 0.2563

                     37                     38                     39
                      A                      A                      A
 Frequencies --    709.4160               747.8532               770.5947
 Red. masses --      6.6231                 2.4093                 1.2719
 Frc consts  --      1.9639                 0.7939                 0.4450
 IR Inten    --     44.0467                 6.3680               103.7130

                     40                     41                     42
                      A                      A                      A
 Frequencies --    781.9404               792.5463               795.7395
 Red. masses --      4.1257                 4.5633                 4.5586
 Frc consts  --      1.4863                 1.6888                 1.7007
 IR Inten    --      9.3881                50.0781                24.8360

                     43                     44                     45
                      A                      A                      A
 Frequencies --    797.9762               812.9782               842.8771
 Red. masses --      3.4736                 2.0072                 4.4780
 Frc consts  --      1.3032                 0.7816                 1.8744
 IR Inten    --     10.3944                20.9067                88.9525

                     46                     47                     48
                      A                      A                      A
 Frequencies --    853.6953               875.9095               883.8019
 Red. masses --      4.4581                 2.1322                 2.7207
 Frc consts  --      1.9143                 0.9638                 1.2521
 IR Inten    --    154.8783                32.6631                 2.5491

                     49                     50                     51
                      A                      A                      A
 Frequencies --    890.4584               950.3805               962.2175
 Red. masses --      1.7752                 2.7188                 2.8307
 Frc consts  --      0.8293                 1.4468                 1.5442
 IR Inten    --      2.2526                 7.6461                61.8678

                     52                     53                     54
                      A                      A                      A
 Frequencies --    967.6628               968.3626               972.7567
 Red. masses --      1.5275                 1.4696                 1.5934
 Frc consts  --      0.8427                 0.8119                 0.8884
 IR Inten    --     32.7895                21.7615                 1.3047

                     55                     56                     57
                      A                      A                      A
 Frequencies --    990.6009               998.3560              1007.8242
 Red. masses --      3.7719                 1.2889                 1.3721
 Frc consts  --      2.1808                 0.7569                 0.8211
 IR Inten    --    553.9324                 1.2507                 0.1118

                     58                     59                     60
                      A                      A                      A
 Frequencies --   1027.1098              1035.4352              1050.2843
 Red. masses --      2.2156                 1.3374                 1.8315
 Frc consts  --      1.3771                 0.8448                 1.1903
 IR Inten    --     11.6069                 4.2158                76.5565

                     61                     62                     63
                      A                      A                      A
 Frequencies --   1060.4764              1103.7147              1119.6626
 Red. masses --      2.1151                 2.9862                 1.7659
 Frc consts  --      1.4015                 2.1433                 1.3043
 IR Inten    --     76.5793                14.5499               418.2921

                     64                     65                     66
                      A                      A                      A
 Frequencies --   1140.6665              1150.4416              1155.5412
 Red. masses --      1.8076                 1.5341                 1.3594
 Frc consts  --      1.3857                 1.1963                 1.0695
 IR Inten    --     53.4596                13.9583                17.7153

                     67                     68                     69
                      A                      A                      A
 Frequencies --   1159.4733              1180.6377              1184.0829
 Red. masses --      1.3718                 1.3577                 2.1374
 Frc consts  --      1.0866                 1.1150                 1.7656
 IR Inten    --     35.6041                 0.4477                29.0503

                     70                     71                     72
                      A                      A                      A
 Frequencies --   1199.3975              1221.4880              1229.7147
 Red. masses --      1.6820                 2.4298                 2.1458
 Frc consts  --      1.4256                 2.1360                 1.9118
 IR Inten    --     11.7840                22.5599                98.4708

                     73                     74                     75
                      A                      A                      A
 Frequencies --   1261.7820              1288.3103              1299.6018
 Red. masses --      2.4989                 1.6966                 2.3936
 Frc consts  --      2.3441                 1.6591                 2.3819
 IR Inten    --     58.7602                12.9178                13.5202

                     76                     77                     78
                      A                      A                      A
 Frequencies --   1322.0682              1327.0140              1340.6051
 Red. masses --      3.7574                 3.2694                 5.8051
 Frc consts  --      3.8694                 3.3921                 6.1470
 IR Inten    --     15.9245               641.5984                92.4991

                     79                     80                     81
                      A                      A                      A
 Frequencies --   1348.8339              1374.8762              1404.8271
 Red. masses --      1.9832                 8.4156                 3.8822
 Frc consts  --      2.1258                 9.3727                 4.5142
 IR Inten    --     31.3687               118.8717                94.3304

                     82                     83                     84
                      A                      A                      A
 Frequencies --   1407.8377              1409.8728              1427.2288
 Red. masses --      5.5085                 1.3834                 2.2699
 Frc consts  --      6.4327                 1.6201                 2.7242
 IR Inten    --    794.0710               181.7472                 1.5978

                     85                     86                     87
                      A                      A                      A
 Frequencies --   1428.3985              1467.8935              1490.5280
 Red. masses --      1.2492                 1.2000                 1.0549
 Frc consts  --      1.5016                 1.5235                 1.3809
 IR Inten    --     12.7742                12.8577                10.3876

                     88                     89                     90
                      A                      A                      A
 Frequencies --   1491.0423              1492.4166              1502.1165
 Red. masses --      1.0672                 1.0476                 2.8250
 Frc consts  --      1.3979                 1.3748                 3.7556
 IR Inten    --     40.8433                 1.8407                19.9709

                     91                     92                     93
                      A                      A                      A
 Frequencies --   1504.0032              1505.1855              1512.3328
 Red. masses --      1.1140                 1.2944                 1.0955
 Frc consts  --      1.4847                 1.7278                 1.4762
 IR Inten    --      4.7951                24.0179                87.3430

                     94                     95                     96
                      A                      A                      A
 Frequencies --   1521.8061              1538.1865              1542.9609
 Red. masses --      1.8223                 3.2947                 3.0553
 Frc consts  --      2.4865                 4.5928                 4.2857
 IR Inten    --     56.6129               175.6491               132.4105

                     97                     98                     99
                      A                      A                      A
 Frequencies --   1592.8980              1652.4905              1674.3750
 Red. masses --     12.1990                 7.2662                 7.0077
 Frc consts  --     18.2369                11.6905                11.5754
 IR Inten    --    458.9057               142.3533                 4.6232

                    100                    101                    102
                      A                      A                      A
 Frequencies --   1685.7415              1686.8662              1751.8708
 Red. masses --      6.9267                 7.9419                 7.7140
 Frc consts  --     11.5973                13.3148                13.9487
 IR Inten    --    109.8732               130.2649                55.1510

                    103                    104                    105
                      A                      A                      A
 Frequencies --   3031.3539              3060.5675              3064.6173
 Red. masses --      1.0481                 1.0356                 1.0376
 Frc consts  --      5.6747                 5.7152                 5.7418
 IR Inten    --     78.8485                21.4340                34.0219

                    106                    107                    108
                      A                      A                      A
 Frequencies --   3113.8964              3124.2986              3133.0344
 Red. masses --      1.0882                 1.1012                 1.1028
 Frc consts  --      6.2167                 6.3334                 6.3782
 IR Inten    --     30.7934                20.4560                52.5586

                    109                    110                    111
                      A                      A                      A
 Frequencies --   3137.8513              3152.0099              3154.4613
 Red. masses --      1.1033                 1.1033                 1.1015
 Frc consts  --      6.4007                 6.4583                 6.4576
 IR Inten    --     27.5478                16.4771                22.9654

                    112                    113                    114
                      A                      A                      A
 Frequencies --   3189.9575              3196.9970              3203.7890
 Red. masses --      1.0872                 1.0900                 1.0898
 Frc consts  --      6.5182                 6.5637                 6.5908
 IR Inten    --      3.2588                13.3186                 7.2249

                    115                    116                    117
                      A                      A                      A
 Frequencies --   3212.9499              3220.9663              3227.1310
 Red. masses --      1.0936                 1.0958                 1.0914
 Frc consts  --      6.6516                 6.6984                 6.6970
 IR Inten    --     29.2469                12.9872                 1.0280

                    118                    119                    120
                      A                      A                      A
 Frequencies --   3233.6216              3240.9665              3254.3489
 Red. masses --      1.0957                 1.0921                 1.0939
 Frc consts  --      6.7504                 6.7588                 6.8260
 IR Inten    --      0.9009                 2.9856                 4.9105

 - Thermochemistry -
 -------------------
 Temperature   298.150 Kelvin.  Pressure   1.00000 Atm.
 Atom     1 has atomic number  6 and mass  12.00000

 Molecular mass:   322.13174 amu.
 Principal axes and moments of inertia in atomic units:
                           1         2         3
     Eigenvalues --  2887.76763********************
           X            1.00000  -0.00233   0.00162
           Y            0.00227   0.99940   0.03470
           Z           -0.00170  -0.03470   0.99940
 This molecule is an asymmetric top.
 Rotational symmetry number  1.
 Warning -- assumption of classical behavior for rotation
           may cause significant error
 Rotational temperatures (Kelvin)      0.02999     0.00610     0.00596
 Rotational constants (GHZ):           0.62496     0.12706     0.12423
 Zero-point vibrational energy     890951.3 (Joules/Mol)
                                  212.94248 (Kcal/Mol)
 Warning -- explicit consideration of  34 degrees of freedom as
           vibrations may cause significant error
 Vibrational temperatures:     24.81    58.85    67.25   127.00   156.18
          (Kelvin)            166.63   181.07   226.90   245.20   276.77
                              337.87   339.27   351.62   385.79   391.61
                              417.00   448.01   467.81   478.69   503.59
                              531.74   596.88   612.94   626.06   673.18
                              714.45   743.70   770.97   795.50   810.99
                              821.37   837.92   848.05   865.79   935.34
                              941.53  1020.69  1075.99  1108.71  1125.04
                             1140.30  1144.89  1148.11  1169.69  1212.71
                             1228.28  1260.24  1271.59  1281.17  1367.39
                             1384.42  1392.25  1393.26  1399.58  1425.25
                             1436.41  1450.03  1477.78  1489.76  1511.12
                             1525.79  1588.00  1610.94  1641.16  1655.23
                             1662.57  1668.22  1698.67  1703.63  1725.67
                             1757.45  1769.29  1815.42  1853.59  1869.84
                             1902.16  1909.28  1928.83  1940.67  1978.14
                             2021.23  2025.56  2028.49  2053.46  2055.15
                             2111.97  2144.54  2145.28  2147.25  2161.21
                             2163.93  2165.63  2175.91  2189.54  2213.11
                             2219.98  2291.83  2377.57  2409.05  2425.41
                             2427.02  2520.55  4361.44  4403.47  4409.30
                             4480.20  4495.17  4507.74  4514.67  4535.04
                             4538.57  4589.64  4599.77  4609.54  4622.72
                             4634.25  4643.12  4652.46  4663.03  4682.28

 Zero-point correction=                           0.339345 (Hartree/Particle)
 Thermal correction to Energy=                    0.359083
 Thermal correction to Enthalpy=                  0.360027
 Thermal correction to Gibbs Free Energy=         0.290981
 Sum of electronic and zero-point Energies=          -1069.527691
 Sum of electronic and thermal Energies=             -1069.507953
 Sum of electronic and thermal Enthalpies=           -1069.507009
 Sum of electronic and thermal Free Energies=        -1069.576056

                     E (Thermal)             CV                S
                      KCal/Mol        Cal/Mol-Kelvin    Cal/Mol-Kelvin
 Total                  225.328             79.322            145.321
 Electronic               0.000              0.000              0.000
 Translational            0.889              2.981             43.205
 Rotational               0.889              2.981             34.743
 Vibrational            223.551             73.361             67.373
 Vibration     1          0.593              1.986              6.929
 Vibration     2          0.594              1.981              5.215
 Vibration     3          0.595              1.979              4.951
 Vibration     4          0.601              1.957              3.698
 Vibration     5          0.606              1.942              3.295
 Vibration     6          0.608              1.936              3.169
 Vibration     7          0.611              1.927              3.009
 Vibration     8          0.621              1.894              2.577
 Vibration     9          0.626              1.879              2.431
 Vibration    10          0.634              1.850              2.205
 Vibration    11          0.655              1.788              1.842
 Vibration    12          0.655              1.786              1.834
 Vibration    13          0.660              1.772              1.771
 Vibration    14          0.673              1.732              1.608
 Vibration    15          0.675              1.725              1.582
 Vibration    16          0.686              1.693              1.475
 Vibration    17          0.700              1.652              1.355
 Vibration    18          0.709              1.625              1.284
 Vibration    19          0.715              1.610              1.247
 Vibration    20          0.727              1.575              1.166
 Vibration    21          0.742              1.535              1.082
 Vibration    22          0.778              1.438              0.910
 Vibration    23          0.788              1.414              0.872
 Vibration    24          0.796              1.394              0.842
 Vibration    25          0.825              1.321              0.743
 Vibration    26          0.852              1.258              0.667
 Vibration    27          0.872              1.213              0.617
 Vibration    28          0.891              1.171              0.574
 Vibration    29          0.908              1.133              0.538
 Vibration    30          0.919              1.110              0.517
 Vibration    31          0.927              1.094              0.503
 Vibration    32          0.939              1.069              0.481
 Vibration    33          0.947              1.054              0.468
 Vibration    34          0.960              1.028              0.447

 Optimization completed.
    -- Stationary point found.

 1\1\GINC-N190\Freq\RCAM-B3LYP\def2TZVP\C19H18N2O3\ARTD\10-Mar-2024\0\\
 #P Geom=AllCheck Guess=TCheck SCRF=Check GenChk RCAM-B3LYP/def2TZVP Fr
 eq\\TITLE\\0,1\C,-5.7756274772,1.7541562882,-1.467782373\C,-5.02948367
 95,1.0552593658,-0.5212709834\C,-3.9207689907,1.6799349566,0.017330789
 6\C,-3.5516356093,2.9640507486,-0.3779875293\C,-4.2921637654,3.6437205
 026,-1.3135691106\C,-5.4176620748,3.0301976655,-1.865355017\H,-5.31225
 61232,0.0537393822,-0.2290068508\H,-6.0072722341,3.5511565357,-2.60730
 45079\H,-6.6460756303,1.281951256,-1.9043188053\H,-4.0083403949,4.6412

 Normal termination of Gaussian 16 at Sun Mar 10 18:17:51 2024.
