 Gaussian 16, Revision A.03,
 Gaussian 16:  ES64L-G16RevA.03 25-Dec-2016

 ----------------------------------------------------------------------
 #p CAM-B3LYP/def2TZVP EmpiricalDispersion=GD3BJ SCRF(PCM,Solvent=chlor
 oform) TD(Singlets,NStates=5, root=1) opt guess=(read) geom=(allcheck)
  gfinput
 ----------------------------------------------------------------------

 Structure from the checkpoint file:  "mc1_s1_b3lyp.chk"
 -----
 TITLE
 -----
 Charge =  0 Multiplicity = 1

 SCF Done:  E(RCAM-B3LYP) =  -1069.84519733     A.U. after    1 cycles
 Total Energy, E(TD-HF/TD-DFT) =  -1069.74165898
 SCF Done:  E(RCAM-B3LYP) =  -1069.82291168     A.U. after   17 cycles
 Total Energy, E(TD-HF/TD-DFT) =  -1069.73987244
 SCF Done:  E(RCAM-B3LYP) =  -1069.83821197     A.U. after   16 cycles
 Total Energy, E(TD-HF/TD-DFT) =  -1069.74952669
 SCF Done:  E(RCAM-B3LYP) =  -1069.83499047     A.U. after   16 cycles
 Total Energy, E(TD-HF/TD-DFT) =  -1069.75314756
 SCF Done:  E(RCAM-B3LYP) =  -1069.81987115     A.U. after   15 cycles
 Total Energy, E(TD-HF/TD-DFT) =  -1069.75063384
 SCF Done:  E(RCAM-B3LYP) =  -1069.82358180     A.U. after   16 cycles
 Total Energy, E(TD-HF/TD-DFT) =  -1069.75502518
 SCF Done:  E(RCAM-B3LYP) =  -1069.82577003     A.U. after   14 cycles
 Total Energy, E(TD-HF/TD-DFT) =  -1069.75632870
 SCF Done:  E(RCAM-B3LYP) =  -1069.82801597     A.U. after   15 cycles
 Total Energy, E(TD-HF/TD-DFT) =  -1069.75495948
 SCF Done:  E(RCAM-B3LYP) =  -1069.82664557     A.U. after   15 cycles
 Total Energy, E(TD-HF/TD-DFT) =  -1069.75747770
 SCF Done:  E(RCAM-B3LYP) =  -1069.82245550     A.U. after   15 cycles
 Total Energy, E(TD-HF/TD-DFT) =  -1069.75779152
 SCF Done:  E(RCAM-B3LYP) =  -1069.82212790     A.U. after   15 cycles
 Total Energy, E(TD-HF/TD-DFT) =  -1069.75792874
 SCF Done:  E(RCAM-B3LYP) =  -1069.82135795     A.U. after   13 cycles
 Total Energy, E(TD-HF/TD-DFT) =  -1069.75800059
 SCF Done:  E(RCAM-B3LYP) =  -1069.82126325     A.U. after   13 cycles
 Total Energy, E(TD-HF/TD-DFT) =  -1069.75805035
 SCF Done:  E(RCAM-B3LYP) =  -1069.82167818     A.U. after   13 cycles
 Total Energy, E(TD-HF/TD-DFT) =  -1069.75806928
 SCF Done:  E(RCAM-B3LYP) =  -1069.82155700     A.U. after   13 cycles
 Total Energy, E(TD-HF/TD-DFT) =  -1069.75807327
 SCF Done:  E(RCAM-B3LYP) =  -1069.82153837     A.U. after   12 cycles
 Total Energy, E(TD-HF/TD-DFT) =  -1069.75807459
 SCF Done:  E(RCAM-B3LYP) =  -1069.82152877     A.U. after    9 cycles
 Total Energy, E(TD-HF/TD-DFT) =  -1069.75807469
 SCF Done:  E(RCAM-B3LYP) =  -1069.82152420     A.U. after    9 cycles

 Excitation energies and oscillator strengths:

 Excited State   1:      Singlet-A      1.7265 eV  718.10 nm  f=0.0919  <S**2>=0.000
      85 -> 86        -0.69150
 This state for optimization and/or second-order correction.
 Total Energy, E(TD-HF/TD-DFT) =  -1069.75807471
 Copying the excited state density for this state as the 1-particle RhoCI density.

 Excited State   2:      Singlet-A      2.8946 eV  428.33 nm  f=0.0505  <S**2>=0.000
      83 -> 86         0.56324
      84 -> 86        -0.36659
      85 -> 87         0.10678

 Excited State   3:      Singlet-A      3.3903 eV  365.70 nm  f=0.3601  <S**2>=0.000
      83 -> 86        -0.37260
      84 -> 86        -0.58248

 Excited State   4:      Singlet-A      3.6064 eV  343.79 nm  f=0.5101  <S**2>=0.000
      83 -> 86        -0.10249
      85 -> 87         0.67992

 Excited State   5:      Singlet-A      4.2819 eV  289.55 nm  f=0.0247  <S**2>=0.000
      80 -> 87         0.39427
      81 -> 86         0.33803
      82 -> 86         0.33369
      83 -> 87        -0.15389
      85 -> 89        -0.15448
      85 -> 90         0.12318

 Optimization completed.
    -- Stationary point found.

                         Standard orientation:
 ---------------------------------------------------------------------
 Center     Atomic      Atomic             Coordinates (Angstroms)
 Number     Number       Type             X           Y           Z
 ---------------------------------------------------------------------
      1          6           0        4.089616   -2.434534    0.279742
      2          6           0        2.985968   -3.078026   -0.260380
      3          6           0        1.867424   -2.363347   -0.668866
      4          6           0        1.895624   -0.991122   -0.507135
      5          6           0        2.999241   -0.330404    0.019194
      6          6           0        4.103330   -1.049118    0.415424
      7          1           0        4.947050   -3.013626    0.594123
      8          1           0        2.991696   -4.154887   -0.362416
      9          1           0        4.973448   -0.550175    0.822690
     10          1           0        1.006108   -2.868508   -1.082589
     11          6           0        2.748867    1.158810   -0.018146
     12          6           0        1.292330    1.189033   -0.448391
     13          7           0        0.900852   -0.064677   -0.833204
     14          6           0        2.991642    1.839596    1.326320
     15          1           0        2.373248    1.393830    2.100459
     16          1           0        2.752408    2.901516    1.266090
     17          1           0        4.041437    1.746323    1.606155
     18          6           0        3.623228    1.813726   -1.103538
     19          1           0        3.468372    1.339447   -2.072206
     20          1           0        4.676422    1.717262   -0.838335
     21          1           0        3.390671    2.874999   -1.193816
     22          6           0        0.491417    2.339291   -0.470229
     23          6           0       -1.625101    1.280439    0.229074
     24          6           0       -1.021496    0.478557    1.301595
     25          8           0       -0.003999    0.872873    1.900057
     26          6           0       -1.665275   -0.753238    1.655244
     27          6           0       -2.884609   -1.086043    1.148666
     28          6           0       -3.489071   -0.222763    0.224016
     29          6           0       -2.882529    0.929363   -0.234218
     30          6           0       -0.112060   -0.393324   -1.818990
     31          1           0       -0.581473    0.517624   -2.170864
     32          1           0       -0.876308   -1.048703   -1.403915
     33          1           0        0.361837   -0.898513   -2.662237
     34          6           0       -0.873026    2.380585   -0.303681
     35          1           0        1.013925    3.280723   -0.603726
     36          1           0       -1.408707    3.284197   -0.567049
     37          1           0       -3.375438    1.524934   -0.987694
     38          1           0       -3.398993   -1.984914    1.449792
     39          1           0       -1.182135   -1.362904    2.405487
     40          7           0       -4.800078   -0.575414   -0.301723
     41          8           0       -5.338374    0.199248   -1.070356
     42          8           0       -5.294142   -1.629980    0.051590
 ---------------------------------------------------------------------

 The electronic state is 1-A.
 Alpha  occ. eigenvalues --  -19.21675 -19.21607 -19.13958 -14.61913 -14.48983
 Alpha  occ. eigenvalues --  -10.36226 -10.30720 -10.30695 -10.30148 -10.29904
 Alpha  occ. eigenvalues --  -10.29685 -10.28047 -10.27249 -10.27001 -10.26984
 Alpha  occ. eigenvalues --  -10.26921 -10.26644 -10.26417 -10.26172 -10.26151
 Alpha  occ. eigenvalues --  -10.26135 -10.25128 -10.24452 -10.23533  -1.31089
 Alpha  occ. eigenvalues --   -1.13035  -1.11859  -1.08149  -0.96770  -0.95604
 Alpha  occ. eigenvalues --   -0.94513  -0.91204  -0.86141  -0.85437  -0.84803
 Alpha  occ. eigenvalues --   -0.84612  -0.81673  -0.78813  -0.76376  -0.73809
 Alpha  occ. eigenvalues --   -0.72842  -0.70918  -0.68693  -0.67146  -0.65956
 Alpha  occ. eigenvalues --   -0.63645  -0.62242  -0.60826  -0.60321  -0.59806
 Alpha  occ. eigenvalues --   -0.58409  -0.57751  -0.56001  -0.55638  -0.54215
 Alpha  occ. eigenvalues --   -0.53327  -0.53157  -0.52933  -0.52359  -0.51528
 Alpha  occ. eigenvalues --   -0.51174  -0.50453  -0.49343  -0.48167  -0.47687
 Alpha  occ. eigenvalues --   -0.46651  -0.46263  -0.45807  -0.45247  -0.44792
 Alpha  occ. eigenvalues --   -0.43681  -0.43246  -0.42844  -0.42011  -0.40866
 Alpha  occ. eigenvalues --   -0.39039  -0.37781  -0.37421  -0.37083  -0.35701
 Alpha  occ. eigenvalues --   -0.33145  -0.32799  -0.29877  -0.29579  -0.24610
 Alpha virt. eigenvalues --   -0.07733  -0.02442   0.01387   0.01885   0.03380
 Alpha virt. eigenvalues --    0.06148   0.06888   0.08205   0.08889   0.09216
 Alpha virt. eigenvalues --    0.09642   0.10781   0.11248   0.11449   0.12434

 Mulliken charges:
               1
     1  C   -0.138828
     2  C   -0.126781
     3  C   -0.212090
     4  C    0.164352
     5  C   -0.058248
     6  C   -0.194625
     7  H    0.148241
     8  H    0.150245
     9  H    0.149342
    10  H    0.162309
    11  C    0.189474
    12  C    0.137106
    13  N    0.037703
    14  C   -0.384086
    15  H    0.164584
    16  H    0.133972
    17  H    0.135816
    18  C   -0.380157
    19  H    0.144832
    20  H    0.150744
    21  H    0.146221
    22  C   -0.214079
    23  C   -0.015293
    24  C    0.227366
    25  O   -0.456594
    26  C   -0.251310
    27  C   -0.164018
    28  C    0.042653
    29  C   -0.199238
    30  C   -0.359662
    31  H    0.186940
    32  H    0.190604
    33  H    0.182428
    34  C   -0.142995
    35  H    0.158931
    36  H    0.165080
    37  H    0.161661
    38  H    0.165055
    39  H    0.123429
    40  N    0.411644
    41  O   -0.366464
    42  O   -0.366264
 Sum of Mulliken charges =  -0.00000

 Dipole moment (field-independent basis, Debye):
    X=             12.7661    Y=              1.5595    Z=             -4.7946  Tot=             13.7256
 Quadrupole moment (field-independent basis, Debye-Ang):
   XX=           -174.1223   YY=           -125.1534   ZZ=           -145.4795
   XY=             -7.3750   XZ=             -5.3302   YZ=             -5.0029

 Normal termination of Gaussian 16 at Tue Mar 12 02:24:56 2024.
