 Gaussian 16, Revision A.03,
 Gaussian 16:  ES64L-G16RevA.03 25-Dec-2016

 ----------------------------------------------------------------------
 #P M062X/def2TZVP opt freq=(noraman) scrf=(pcm,solvent=chloroform) gfi
 nput integral=ultrafine
 ----------------------------------------------------------------------

 -----
 TITLE
 -----
 Symbolic Z-matrix:
 Charge =  0 Multiplicity = 1

 SCF Done:  E(RM062X) =  -1069.84508182     A.U. after   15 cycles
 SCF Done:  E(RM062X) =  -1069.86294033     A.U. after   16 cycles
 SCF Done:  E(RM062X) =  -1069.85779174     A.U. after   16 cycles
 SCF Done:  E(RM062X) =  -1069.86665568     A.U. after   15 cycles
 SCF Done:  E(RM062X) =  -1069.87001005     A.U. after   15 cycles
 SCF Done:  E(RM062X) =  -1069.87796054     A.U. after   15 cycles
 SCF Done:  E(RM062X) =  -1069.88656957     A.U. after   14 cycles
 SCF Done:  E(RM062X) =  -1069.89098807     A.U. after   14 cycles
 SCF Done:  E(RM062X) =  -1069.89452373     A.U. after   14 cycles
 SCF Done:  E(RM062X) =  -1069.89520636     A.U. after   13 cycles
 SCF Done:  E(RM062X) =  -1069.89572334     A.U. after   13 cycles
 SCF Done:  E(RM062X) =  -1069.89644318     A.U. after   12 cycles
 SCF Done:  E(RM062X) =  -1069.89647160     A.U. after   12 cycles
 SCF Done:  E(RM062X) =  -1069.89653111     A.U. after   12 cycles
 SCF Done:  E(RM062X) =  -1069.89654874     A.U. after   11 cycles
 SCF Done:  E(RM062X) =  -1069.89655074     A.U. after   10 cycles
 SCF Done:  E(RM062X) =  -1069.89655152     A.U. after    9 cycles
 SCF Done:  E(RM062X) =  -1069.89655159     A.U. after    9 cycles
 SCF Done:  E(RM062X) =  -1069.89655171     A.U. after    6 cycles
 Optimization completed.
    -- Stationary point found.
 Normal termination of Gaussian 16 at Sun Mar 10 07:36:14 2024.

 --------------------------------------------------------------------
 #P Geom=AllCheck Guess=TCheck SCRF=Check GenChk RM062X/def2TZVP Freq
 --------------------------------------------------------------------

 Structure from the checkpoint file:  "mc1_gs_m062x.chk"
 -----
 TITLE
 -----
 Charge =  0 Multiplicity = 1

                         Standard orientation:
 ---------------------------------------------------------------------
 Center     Atomic      Atomic             Coordinates (Angstroms)
 Number     Number       Type             X           Y           Z
 ---------------------------------------------------------------------
      1          6           0        5.043171   -1.677109    0.267185
      2          6           0        4.213385   -2.533961   -0.447709
      3          6           0        2.960911   -2.119099   -0.891688
      4          6           0        2.594004   -0.824850   -0.582849
      5          6           0        3.401079    0.043828    0.135207
      6          6           0        4.643417   -0.375474    0.565191
      7          1           0        6.010290   -2.028663    0.600610
      8          1           0        4.542078   -3.542175   -0.660641
      9          1           0        5.292671    0.285376    1.126181
     10          1           0        2.311014   -2.788661   -1.437740
     11          6           0        2.681487    1.356883    0.288788
     12          6           0        1.366681    1.053775   -0.402605
     13          7           0        1.393041   -0.149275   -0.920357
     14          6           0        2.437252    1.723133    1.758100
     15          1           0        1.889098    0.930482    2.263354
     16          1           0        1.858563    2.645320    1.821564
     17          1           0        3.397792    1.877794    2.250604
     18          6           0        3.422559    2.491204   -0.437835
     19          1           0        3.559489    2.262863   -1.495001
     20          1           0        4.403949    2.617517    0.019453
     21          1           0        2.879697    3.431368   -0.341559
     22          6           0        0.315799    2.010706   -0.535599
     23          6           0       -1.812650    0.728706    0.031529
     24          6           0       -1.281987   -0.300653    0.921135
     25          8           0       -0.096769   -0.321534    1.305960
     26          6           0       -2.227408   -1.308586    1.357351
     27          6           0       -3.532027   -1.301531    0.982929
     28          6           0       -4.012981   -0.262768    0.155424
     29          6           0       -3.172917    0.734291   -0.285084
     30          6           0        0.369843   -0.774227   -1.733578
     31          1           0       -0.271981   -0.004923   -2.150812
     32          1           0       -0.223005   -1.454474   -1.121518
     33          1           0        0.857269   -1.325812   -2.534543
     34          6           0       -1.027279    1.832236   -0.444722
     35          1           0        0.666916    3.023242   -0.702206
     36          1           0       -1.615146    2.703972   -0.719778
     37          1           0       -3.577723    1.525876   -0.902261
     38          1           0       -4.216365   -2.069355    1.315276
     39          1           0       -1.839681   -2.083829    2.005510
     40          7           0       -5.398811   -0.238503   -0.221989
     41          8           0       -5.801893    0.673224   -0.927409
     42          8           0       -6.123661   -1.135502    0.178062
 ---------------------------------------------------------------------

 SCF Done:  E(RM062X) =  -1069.89655171     A.U. after    2 cycles

 The electronic state is 1-A.
 Alpha  occ. eigenvalues --  -19.64768 -19.64656 -19.58025 -14.98590 -14.85224
 Alpha  occ. eigenvalues --  -10.64419 -10.60563 -10.60414 -10.59238 -10.58858
 Alpha  occ. eigenvalues --  -10.57824 -10.57816 -10.56754 -10.56673 -10.56335
 Alpha  occ. eigenvalues --  -10.56291 -10.56062 -10.56030 -10.55778 -10.55507
 Alpha  occ. eigenvalues --  -10.55149 -10.54844 -10.54018 -10.53328  -1.35604
 Alpha  occ. eigenvalues --   -1.16592  -1.15442  -1.12674  -0.98907  -0.97832
 Alpha  occ. eigenvalues --   -0.95968  -0.92517  -0.88170  -0.87107  -0.86440
 Alpha  occ. eigenvalues --   -0.86122  -0.83335  -0.79963  -0.76927  -0.75379
 Alpha  occ. eigenvalues --   -0.73813  -0.71869  -0.69455  -0.67897  -0.66627
 Alpha  occ. eigenvalues --   -0.65025  -0.62629  -0.61790  -0.60456  -0.60201
 Alpha  occ. eigenvalues --   -0.58983  -0.58403  -0.55928  -0.55606  -0.54353
 Alpha  occ. eigenvalues --   -0.53671  -0.53234  -0.52566  -0.52354  -0.51610
 Alpha  occ. eigenvalues --   -0.50523  -0.50096  -0.49269  -0.47711  -0.47291
 Alpha  occ. eigenvalues --   -0.46923  -0.46069  -0.45530  -0.45230  -0.44003
 Alpha  occ. eigenvalues --   -0.43592  -0.42603  -0.42385  -0.41371  -0.40426
 Alpha  occ. eigenvalues --   -0.40182  -0.38741  -0.37929  -0.37455  -0.37138
 Alpha  occ. eigenvalues --   -0.33064  -0.32602  -0.30789  -0.29595  -0.25178
 Alpha virt. eigenvalues --   -0.06550  -0.03158  -0.00081   0.00327   0.02870
 Alpha virt. eigenvalues --    0.05404   0.05722   0.07364   0.08053   0.08693
 Alpha virt. eigenvalues --    0.09419   0.09828   0.10620   0.11023   0.11356

 Mulliken charges:
               1
     1  C   -0.149871
     2  C   -0.163657
     3  C   -0.188911
     4  C    0.156152
     5  C   -0.056842
     6  C   -0.196455
     7  H    0.165239
     8  H    0.166950
     9  H    0.172159
    10  H    0.192390
    11  C    0.107768
    12  C    0.087124
    13  N    0.070066
    14  C   -0.425088
    15  H    0.185798
    16  H    0.168077
    17  H    0.163381
    18  C   -0.419660
    19  H    0.173717
    20  H    0.172336
    21  H    0.168391
    22  C   -0.265720
    23  C   -0.005208
    24  C    0.195147
    25  O   -0.479656
    26  C   -0.230008
    27  C   -0.156222
    28  C   -0.058548
    29  C   -0.132226
    30  C   -0.418856
    31  H    0.204081
    32  H    0.223166
    33  H    0.183262
    34  C   -0.153652
    35  H    0.172833
    36  H    0.160709
    37  H    0.191738
    38  H    0.185673
    39  H    0.150968
    40  N    0.487543
    41  O   -0.404246
    42  O   -0.399840
 Sum of Mulliken charges =  -0.00000

 Dipole moment (field-independent basis, Debye):
    X=             14.6692    Y=              1.7335    Z=             -3.1824  Tot=             15.1102
 Quadrupole moment (field-independent basis, Debye-Ang):
   XX=           -182.8795   YY=           -123.7863   ZZ=           -140.2002
   XY=             -2.3763   XZ=             -3.3175   YZ=              3.7038

  Exact polarizability: 538.354   6.662 310.880  17.871 -13.426 218.447
 Approx polarizability: 455.256   8.151 335.465  27.662 -17.295 245.537

                      1                      2                      3
                      A                      A                      A
 Frequencies --     30.5886                37.3833                48.4741
 Red. masses --      7.2526                 5.9194                 6.4615
 Frc consts  --      0.0040                 0.0049                 0.0089
 IR Inten    --      0.8572                 0.2948                 0.1296

                      4                      5                      6
                      A                      A                      A
 Frequencies --     72.1902                96.4568               110.4349
 Red. masses --      6.4314                 3.7934                 5.0035
 Frc consts  --      0.0197                 0.0208                 0.0360
 IR Inten    --      0.5078                 2.0884                 9.7832

                      7                      8                      9
                      A                      A                      A
 Frequencies --    122.2479               144.4717               163.6465
 Red. masses --      4.7293                 6.1453                 4.0016
 Frc consts  --      0.0416                 0.0756                 0.0631
 IR Inten    --      2.5573                 3.1157                 8.2488

                     10                     11                     12
                      A                      A                      A
 Frequencies --    180.2967               192.3937               222.4241
 Red. masses --      2.9577                 2.7454                 1.7929
 Frc consts  --      0.0566                 0.0599                 0.0523
 IR Inten    --      0.5392                10.7400                32.6748

                     13                     14                     15
                      A                      A                      A
 Frequencies --    229.7138               240.6386               255.5672
 Red. masses --      2.9268                 1.3886                 1.7090
 Frc consts  --      0.0910                 0.0474                 0.0658
 IR Inten    --      1.4105                 1.8010                 0.5175

                     16                     17                     18
                      A                      A                      A
 Frequencies --    271.0216               288.3229               298.8846
 Red. masses --      4.1206                 1.1673                 5.0777
 Frc consts  --      0.1783                 0.0572                 0.2673
 IR Inten    --      9.6325                 0.5107                13.8490

                     19                     20                     21
                      A                      A                      A
 Frequencies --    325.7766               337.7925               340.7333
 Red. masses --      2.5381                 2.3316                 3.6007
 Frc consts  --      0.1587                 0.1568                 0.2463
 IR Inten    --      2.5008                 0.6208                 0.3254

                     22                     23                     24
                      A                      A                      A
 Frequencies --    366.0287               383.5339               406.1435
 Red. masses --      6.6658                 5.0473                 3.6371
 Frc consts  --      0.5262                 0.4374                 0.3535
 IR Inten    --      5.4125                66.5301                80.5343

                     25                     26                     27
                      A                      A                      A
 Frequencies --    440.6293               462.3886               479.1974
 Red. masses --      6.2840                 3.6415                 5.3697
 Frc consts  --      0.7188                 0.4587                 0.7265
 IR Inten    --      4.6817                 4.2410                21.9370

                     28                     29                     30
                      A                      A                      A
 Frequencies --    499.5602               531.9376               542.7886
 Red. masses --      3.0327                 5.5413                 3.4133
 Frc consts  --      0.4459                 0.9238                 0.5925
 IR Inten    --     16.9300                16.3754                 3.3865

                     31                     32                     33
                      A                      A                      A
 Frequencies --    556.4829               560.5716               570.0481
 Red. masses --      5.2055                 5.3536                 3.9871
 Frc consts  --      0.9498                 0.9912                 0.7634
 IR Inten    --      8.6032                10.6104                 2.3929

                     34                     35                     36
                      A                      A                      A
 Frequencies --    589.0209               637.8116               646.7255
 Red. masses --      3.5928                 4.2187                 5.6590
 Frc consts  --      0.7344                 1.0111                 1.3945
 IR Inten    --      1.5727                 1.7111                22.6542

                     37                     38                     39
                      A                      A                      A
 Frequencies --    680.3581               694.0463               749.0126
 Red. masses --      3.9192                 3.9483                 2.6188
 Frc consts  --      1.0689                 1.1206                 0.8656
 IR Inten    --    140.2488                25.9549                28.6763

                     40                     41                     42
                      A                      A                      A
 Frequencies --    763.0737               777.0045               780.1369
 Red. masses --      2.9861                 1.9991                 2.1585
 Frc consts  --      1.0244                 0.7111                 0.7740
 IR Inten    --     44.1151                49.1163                16.9924

                     43                     44                     45
                      A                      A                      A
 Frequencies --    792.7761               798.6492               804.9653
 Red. masses --      3.5268                 3.3291                 7.3888
 Frc consts  --      1.3060                 1.2511                 2.8208
 IR Inten    --      7.6688                12.3169                27.7392

                     46                     47                     48
                      A                      A                      A
 Frequencies --    821.5875               860.3578               869.1480
 Red. masses --      2.3216                 6.4769                 2.3655
 Frc consts  --      0.9233                 2.8247                 1.0528
 IR Inten    --     66.3834                18.5986                34.6449

                     49                     50                     51
                      A                      A                      A
 Frequencies --    899.3257               909.1170               959.4490
 Red. masses --      1.4311                 3.6441                 3.9576
 Frc consts  --      0.6820                 1.7745                 2.1465
 IR Inten    --      0.1017                14.9941                98.8686

                     52                     53                     54
                      A                      A                      A
 Frequencies --    964.7979               968.6021               973.1030
 Red. masses --      1.9945                 1.7571                 1.4473
 Frc consts  --      1.0939                 0.9713                 0.8075
 IR Inten    --    176.5327                41.1654                 4.1408

                     55                     56                     57
                      A                      A                      A
 Frequencies --    975.4239              1009.1998              1015.5893
 Red. masses --      1.3723                 1.5532                 1.3038
 Frc consts  --      0.7693                 0.9320                 0.7923
 IR Inten    --      8.3854               205.4260                 3.8894

                     58                     59                     60
                      A                      A                      A
 Frequencies --   1022.1909              1036.5381              1052.0344
 Red. masses --      1.3231                 1.3418                 2.3958
 Frc consts  --      0.8145                 0.8494                 1.5623
 IR Inten    --      0.0979                 0.6314                37.4240

                     61                     62                     63
                      A                      A                      A
 Frequencies --   1064.9185              1095.9939              1116.4725
 Red. masses --      2.3183                 2.4758                 1.7918
 Frc consts  --      1.5490                 1.7522                 1.3159
 IR Inten    --     33.1761                 1.2182               429.0375

                     64                     65                     66
                      A                      A                      A
 Frequencies --   1140.8944              1149.8175              1154.5388
 Red. masses --      1.4317                 1.4652                 1.4041
 Frc consts  --      1.0980                 1.1413                 1.1027
 IR Inten    --     11.6422                 1.8378                21.5682

                     67                     68                     69
                      A                      A                      A
 Frequencies --   1161.2525              1176.3410              1176.7231
 Red. masses --      1.7163                 3.1410                 1.5756
 Frc consts  --      1.3636                 2.5608                 1.2854
 IR Inten    --     96.6259                 2.5945                45.0807

                     70                     71                     72
                      A                      A                      A
 Frequencies --   1182.9941              1214.8708              1258.1666
 Red. masses --      1.9118                 2.7945                 2.1122
 Frc consts  --      1.5763                 2.4300                 1.9700
 IR Inten    --    106.2376                15.7139               181.6488

                     73                     74                     75
                      A                      A                      A
 Frequencies --   1261.4564              1272.8264              1295.2373
 Red. masses --      1.6628                 1.5685                 3.2237
 Frc consts  --      1.5590                 1.4972                 3.1865
 IR Inten    --    275.6454                40.9044                11.6566

                     76                     77                     78
                      A                      A                      A
 Frequencies --   1328.0178              1347.5507              1374.0219
 Red. masses --      1.9712                 3.1600                 5.1661
 Frc consts  --      2.0483                 3.3808                 5.7465
 IR Inten    --     13.5007                37.2592              2364.9735

                     79                     80                     81
                      A                      A                      A
 Frequencies --   1383.6737              1393.7643              1394.7503
 Red. masses --      3.5505                 1.6921                 1.5880
 Frc consts  --      4.0050                 1.9367                 1.8201
 IR Inten    --     93.7936               127.6417                95.9570

                     82                     83                     84
                      A                      A                      A
 Frequencies --   1409.3460              1419.3286              1436.0570
 Red. masses --      3.3678                 1.2215                 1.2722
 Frc consts  --      3.9412                 1.4498                 1.5457
 IR Inten    --    327.5110                 2.2365                52.0969

                     85                     86                     87
                      A                      A                      A
 Frequencies --   1473.8212              1478.2743              1480.5408
 Red. masses --      1.2932                 1.5721                 1.0987
 Frc consts  --      1.6550                 2.0241                 1.4189
 IR Inten    --     11.4773                38.5687                23.7317

                     88                     89                     90
                      A                      A                      A
 Frequencies --   1483.3259              1490.9746              1495.6179
 Red. masses --      1.1896                 1.1753                 1.1279
 Frc consts  --      1.5421                 1.5393                 1.4865
 IR Inten    --     38.3232                92.5818                 6.0290

                     91                     92                     93
                      A                      A                      A
 Frequencies --   1501.1554              1505.9345              1512.5408
 Red. masses --      1.2226                 1.8824                 2.2429
 Frc consts  --      1.6233                 2.5152                 3.0232
 IR Inten    --     31.3782               152.2163                79.0416

                     94                     95                     96
                      A                      A                      A
 Frequencies --   1529.7942              1532.5238              1588.7256
 Red. masses --      4.8223                 2.7845                 9.0420
 Frc consts  --      6.6492                 3.8531                13.4466
 IR Inten    --    156.5656               133.2887               284.1325

                     97                     98                     99
                      A                      A                      A
 Frequencies --   1618.1743              1641.4359              1667.8116
 Red. masses --      8.9684                 7.1869                 7.0787
 Frc consts  --     13.8361                11.4087                11.6011
 IR Inten    --    398.1561               456.6322                84.1724

                    100                    101                    102
                      A                      A                      A
 Frequencies --   1677.2462              1679.0918              1694.6553
 Red. masses --      7.2571                 7.0141                 7.8298
 Frc consts  --     12.0284                11.6512                13.2485
 IR Inten    --    224.8891               929.6739                84.1654

                    103                    104                    105
                      A                      A                      A
 Frequencies --   3068.7024              3070.2339              3087.8802
 Red. masses --      1.0335                 1.0344                 1.0352
 Frc consts  --      5.7340                 5.7451                 5.8158
 IR Inten    --     16.3011                31.3637                 8.6114

                    106                    107                    108
                      A                      A                      A
 Frequencies --   3146.3585              3150.4138              3151.4638
 Red. masses --      1.1035                 1.1033                 1.1040
 Frc consts  --      6.4365                 6.4519                 6.4599
 IR Inten    --     11.9969                17.5126                20.4153

                    109                    110                    111
                      A                      A                      A
 Frequencies --   3161.5338              3165.1460              3171.7196
 Red. masses --      1.0864                 1.1029                 1.1034
 Frc consts  --      6.3977                 6.5101                 6.5398
 IR Inten    --      8.4572                 3.8860                 3.4045

                    112                    113                    114
                      A                      A                      A
 Frequencies --   3191.3267              3204.5908              3207.3531
 Red. masses --      1.0884                 1.1038                 1.0885
 Frc consts  --      6.5311                 6.6785                 6.5973
 IR Inten    --      2.3378                 1.5176                 1.7657

                    115                    116                    117
                      A                      A                      A
 Frequencies --   3216.7486              3219.1603              3223.2494
 Red. masses --      1.0894                 1.0906                 1.0909
 Frc consts  --      6.6413                 6.6590                 6.6776
 IR Inten    --      3.7363                 3.8138                 0.9283

                    118                    119                    120
                      A                      A                      A
 Frequencies --   3229.4940              3240.1469              3241.8278
 Red. masses --      1.0937                 1.0966                 1.0946
 Frc consts  --      6.7209                 6.7832                 6.7774
 IR Inten    --      9.9713                 2.2658                 2.2367

 - Thermochemistry -
 -------------------
 Temperature   298.150 Kelvin.  Pressure   1.00000 Atm.
 Atom     1 has atomic number  6 and mass  12.00000

 Molecular mass:   322.13174 amu.
 Principal axes and moments of inertia in atomic units:
                           1         2         3
     Eigenvalues --  2994.02954********************
           X            0.99999   0.00425   0.00164
           Y           -0.00427   0.99990   0.01351
           Z           -0.00158  -0.01352   0.99991
 This molecule is an asymmetric top.
 Rotational symmetry number  1.
 Warning -- assumption of classical behavior for rotation
           may cause significant error
 Rotational temperatures (Kelvin)      0.02893     0.00603     0.00554
 Rotational constants (GHZ):           0.60278     0.12557     0.11554
 Zero-point vibrational energy     886832.5 (Joules/Mol)
                                  211.95806 (Kcal/Mol)
 Warning -- explicit consideration of  34 degrees of freedom as
           vibrations may cause significant error
 Vibrational temperatures:     44.01    53.79    69.74   103.87   138.78
          (Kelvin)            158.89   175.89   207.86   235.45   259.41
                              276.81   320.02   330.51   346.23   367.70
                              389.94   414.83   430.03   468.72   486.01
                              490.24   526.63   551.82   584.35   633.97
                              665.27   689.46   718.76   765.34   780.95
                              800.65   806.54   820.17   847.47   917.67
                              930.49   978.88   998.58  1077.66  1097.89
                             1117.94  1122.44  1140.63  1149.08  1158.17
                             1182.08  1237.86  1250.51  1293.93  1308.02
                             1380.43  1388.13  1393.60  1400.08  1403.42
                             1452.01  1461.21  1470.70  1491.35  1513.64
                             1532.18  1576.89  1606.35  1641.49  1654.33
                             1661.12  1670.78  1692.49  1693.04  1702.06
                             1747.93  1810.22  1814.95  1831.31  1863.56
                             1910.72  1938.82  1976.91  1990.80  2005.32
                             2006.73  2027.73  2042.10  2066.17  2120.50
                             2126.91  2130.17  2134.18  2145.18  2151.86
                             2159.83  2166.70  2176.21  2201.03  2204.96
                             2285.82  2328.19  2361.66  2399.61  2413.18
                             2415.84  2438.23  4415.18  4417.38  4442.77
                             4526.91  4532.74  4534.25  4548.74  4553.94
                             4563.40  4591.61  4610.69  4614.67  4628.18
                             4631.65  4637.54  4646.52  4661.85  4664.27

 Zero-point correction=                           0.337777 (Hartree/Particle)
 Thermal correction to Energy=                    0.358304
 Thermal correction to Enthalpy=                  0.359248
 Thermal correction to Gibbs Free Energy=         0.288780
 Sum of electronic and zero-point Energies=          -1069.558775
 Sum of electronic and thermal Energies=             -1069.538247
 Sum of electronic and thermal Enthalpies=           -1069.537303
 Sum of electronic and thermal Free Energies=        -1069.607772

                     E (Thermal)             CV                S
                      KCal/Mol        Cal/Mol-Kelvin    Cal/Mol-Kelvin
 Total                  224.839             81.104            148.313
 Electronic               0.000              0.000              0.000
 Translational            0.889              2.981             43.205
 Rotational               0.889              2.981             34.862
 Vibrational            223.062             75.142             70.246
 Vibration     1          0.594              1.984              5.791
 Vibration     2          0.594              1.982              5.393
 Vibration     3          0.595              1.978              4.879
 Vibration     4          0.598              1.967              4.093
 Vibration     5          0.603              1.952              3.525
 Vibration     6          0.606              1.941              3.261
 Vibration     7          0.610              1.931              3.065
 Vibration     8          0.616              1.909              2.744
 Vibration     9          0.623              1.887              2.507
 Vibration    10          0.629              1.866              2.325
 Vibration    11          0.634              1.850              2.205
 Vibration    12          0.648              1.807              1.939
 Vibration    13          0.652              1.796              1.881
 Vibration    14          0.658              1.778              1.798
 Vibration    15          0.666              1.753              1.692
 Vibration    16          0.675              1.727              1.590
 Vibration    17          0.685              1.695              1.484
 Vibration    18          0.692              1.676              1.423
 Vibration    19          0.710              1.624              1.281
 Vibration    20          0.718              1.600              1.223
 Vibration    21          0.720              1.594              1.209
 Vibration    22          0.739              1.542              1.096
 Vibration    23          0.753              1.505              1.025
 Vibration    24          0.771              1.457              0.940
 Vibration    25          0.801              1.382              0.825
 Vibration    26          0.820              1.333              0.759
 Vibration    27          0.836              1.296              0.712
 Vibration    28          0.855              1.251              0.659
 Vibration    29          0.887              1.179              0.583
 Vibration    30          0.898              1.155              0.559
 Vibration    31          0.912              1.126              0.531
 Vibration    32          0.916              1.117              0.523
 Vibration    33          0.926              1.096              0.504
 Vibration    34          0.946              1.055              0.469

 Optimization completed.
    -- Stationary point found.
 Normal termination of Gaussian 16 at Sun Mar 10 09:54:07 2024.
