 Gaussian 16, Revision A.03,
 Gaussian 16:  ES64L-G16RevA.03 25-Dec-2016

 ----------------------------------------------------------------------
 #P CAM-B3LYP/def2TZVP opt freq=(noraman) scrf=(pcm,solvent=chloroform)
  EmpiricalDispersion=GD3BJ gfinput
 ----------------------------------------------------------------------

 -----
 TITLE
 -----
 Symbolic Z-matrix:
 Charge =  0 Multiplicity = 1

 SCF Done:  E(RCAM-B3LYP) =  -1069.79465976     A.U. after   17 cycles
 SCF Done:  E(RCAM-B3LYP) =  -1069.81366724     A.U. after   15 cycles
 SCF Done:  E(RCAM-B3LYP) =  -1069.81204694     A.U. after   16 cycles
 SCF Done:  E(RCAM-B3LYP) =  -1069.81633291     A.U. after   15 cycles
 SCF Done:  E(RCAM-B3LYP) =  -1069.82770176     A.U. after   15 cycles
 SCF Done:  E(RCAM-B3LYP) =  -1069.83393828     A.U. after   14 cycles
 SCF Done:  E(RCAM-B3LYP) =  -1069.83925999     A.U. after   15 cycles
 SCF Done:  E(RCAM-B3LYP) =  -1069.83927174     A.U. after   15 cycles
 SCF Done:  E(RCAM-B3LYP) =  -1069.83982789     A.U. after   14 cycles
 SCF Done:  E(RCAM-B3LYP) =  -1069.84387984     A.U. after   15 cycles
 SCF Done:  E(RCAM-B3LYP) =  -1069.84479492     A.U. after   14 cycles
 SCF Done:  E(RCAM-B3LYP) =  -1069.84495609     A.U. after   13 cycles
 SCF Done:  E(RCAM-B3LYP) =  -1069.84512351     A.U. after   13 cycles
 SCF Done:  E(RCAM-B3LYP) =  -1069.84518212     A.U. after   11 cycles
 SCF Done:  E(RCAM-B3LYP) =  -1069.84519332     A.U. after   11 cycles
 SCF Done:  E(RCAM-B3LYP) =  -1069.84519593     A.U. after   10 cycles
 SCF Done:  E(RCAM-B3LYP) =  -1069.84519687     A.U. after   11 cycles
 SCF Done:  E(RCAM-B3LYP) =  -1069.84519717     A.U. after   10 cycles
 SCF Done:  E(RCAM-B3LYP) =  -1069.84519733     A.U. after    8 cycles
 Optimization completed.
    -- Stationary point found.

 1\1\GINC-N077\FOpt\RCAM-B3LYP\def2TZVP\C19H18N2O3\ARTD\10-Mar-2024\0\\
 #P CAM-B3LYP/def2TZVP opt freq=(noraman) scrf=(pcm,solvent=chloroform)
  EmpiricalDispersion=GD3BJ gfinput\\TITLE\\0,1\C,-2.4127588202,2.31088
 05177,0.6045620559\C,-1.5944450094,1.2279984627,0.3182477736\C,-0.2784
 871035,1.4119526559,-0.0859672266\C,0.1633724341,2.711978377,-0.187026
 5577\C,-0.636742746,3.8057253222,0.0878598108\C,-1.9384500427,3.613111
 2269,0.4925751421\H,-3.4344923298,2.1392949063,0.9140829877\H,-1.98542
 18033,0.2237657991,0.4055153298\H,-2.58514728,4.4517904542,0.714036348

 Normal termination of Gaussian 16 at Sun Mar 10 09:50:28 2024.

 ----------------------------------------------------------------------
 #P Geom=AllCheck Guess=TCheck SCRF=Check GenChk RCAM-B3LYP/def2TZVP Fr
 eq
 ----------------------------------------------------------------------

 Structure from the checkpoint file:  "mc1_gs_b3lyp.chk"
 -----
 TITLE
 -----
 Charge =  0 Multiplicity = 1

                         Standard orientation:
 ---------------------------------------------------------------------
 Center     Atomic      Atomic             Coordinates (Angstroms)
 Number     Number       Type             X           Y           Z
 ---------------------------------------------------------------------
      1          6           0        5.048765   -1.654440    0.302766
      2          6           0        4.250090   -2.506008   -0.446365
      3          6           0        3.007711   -2.096681   -0.913186
      4          6           0        2.616561   -0.815713   -0.594374
      5          6           0        3.394124    0.047405    0.155593
      6          6           0        4.626325   -0.365796    0.609776
      7          1           0        6.010390   -1.999848    0.656540
      8          1           0        4.595042   -3.506399   -0.668146
      9          1           0        5.254217    0.290109    1.198153
     10          1           0        2.381861   -2.764670   -1.486633
     11          6           0        2.658603    1.352065    0.309288
     12          6           0        1.357549    1.040557   -0.405528
     13          7           0        1.415142   -0.150278   -0.946249
     14          6           0        2.396478    1.713275    1.773563
     15          1           0        1.844013    0.920661    2.271268
     16          1           0        1.814938    2.632283    1.837365
     17          1           0        3.347156    1.869996    2.282134
     18          6           0        3.397127    2.493059   -0.406208
     19          1           0        3.558451    2.265970   -1.459540
     20          1           0        4.368149    2.637890    0.064826
     21          1           0        2.842003    3.426491   -0.326943
     22          6           0        0.305183    1.987888   -0.559794
     23          6           0       -1.819003    0.715674    0.016074
     24          6           0       -1.289316   -0.302296    0.911778
     25          8           0       -0.098131   -0.327165    1.280243
     26          6           0       -2.233282   -1.291197    1.374810
     27          6           0       -3.536355   -1.286803    1.006532
     28          6           0       -4.018998   -0.267274    0.161229
     29          6           0       -3.175234    0.717131   -0.296632
     30          6           0        0.417433   -0.766354   -1.792453
     31          1           0       -0.217213    0.004592   -2.214444
     32          1           0       -0.190614   -1.457106   -1.211368
     33          1           0        0.921656   -1.304035   -2.591136
     34          6           0       -1.033391    1.809495   -0.474069
     35          1           0        0.652334    2.998752   -0.737297
     36          1           0       -1.620497    2.675852   -0.762395
     37          1           0       -3.579307    1.498057   -0.925113
     38          1           0       -4.219857   -2.045474    1.357455
     39          1           0       -1.846203   -2.055569    2.035115
     40          7           0       -5.398493   -0.246200   -0.212353
     41          8           0       -5.802975    0.652442   -0.939470
     42          8           0       -6.130806   -1.132294    0.208424
 ---------------------------------------------------------------------

 SCF Done:  E(RCAM-B3LYP) =  -1069.84519733     A.U. after    1 cycles

 The electronic state is 1-A.
 Alpha  occ. eigenvalues --  -19.21667 -19.21578 -19.14878 -14.61998 -14.49028
 Alpha  occ. eigenvalues --  -10.35126 -10.30994 -10.30823 -10.29790 -10.29577
 Alpha  occ. eigenvalues --  -10.28360 -10.28249 -10.27197 -10.27101 -10.26868
 Alpha  occ. eigenvalues --  -10.26736 -10.26506 -10.26482 -10.26250 -10.26032
 Alpha  occ. eigenvalues --  -10.25781 -10.25292 -10.24556 -10.23765  -1.30716
 Alpha  occ. eigenvalues --   -1.12642  -1.12454  -1.08585  -0.97040  -0.95892
 Alpha  occ. eigenvalues --   -0.94259  -0.90910  -0.86706  -0.85614  -0.84984
 Alpha  occ. eigenvalues --   -0.84773  -0.82108  -0.78806  -0.75924  -0.74094
 Alpha  occ. eigenvalues --   -0.72953  -0.71228  -0.68871  -0.67351  -0.66114
 Alpha  occ. eigenvalues --   -0.63548  -0.62242  -0.60702  -0.60273  -0.59637
 Alpha  occ. eigenvalues --   -0.58334  -0.58049  -0.55848  -0.55478  -0.54187
 Alpha  occ. eigenvalues --   -0.53494  -0.53232  -0.52750  -0.52403  -0.51686
 Alpha  occ. eigenvalues --   -0.50717  -0.50167  -0.49457  -0.47852  -0.47277
 Alpha  occ. eigenvalues --   -0.47085  -0.46155  -0.45564  -0.45429  -0.44487
 Alpha  occ. eigenvalues --   -0.43735  -0.42943  -0.42746  -0.41623  -0.40933
 Alpha  occ. eigenvalues --   -0.39955  -0.38239  -0.37738  -0.37158  -0.35538
 Alpha  occ. eigenvalues --   -0.33204  -0.32806  -0.30394  -0.29651  -0.25502
 Alpha virt. eigenvalues --   -0.05372  -0.02636   0.01204   0.01553   0.04108
 Alpha virt. eigenvalues --    0.06459   0.06602   0.08252   0.08874   0.09613
 Alpha virt. eigenvalues --    0.10314   0.10735   0.11504   0.11833   0.12335

 Mulliken charges:
               1
     1  C   -0.135905
     2  C   -0.136417
     3  C   -0.198680
     4  C    0.170716
     5  C   -0.090811
     6  C   -0.204349
     7  H    0.147987
     8  H    0.150695
     9  H    0.150644
    10  H    0.166212
    11  C    0.267590
    12  C    0.157760
    13  N    0.092997
    14  C   -0.385564
    15  H    0.160611
    16  H    0.137599
    17  H    0.135284
    18  C   -0.388901
    19  H    0.146565
    20  H    0.147063
    21  H    0.144006
    22  C   -0.338769
    23  C    0.021056
    24  C    0.206010
    25  O   -0.472918
    26  C   -0.210013
    27  C   -0.170792
    28  C    0.007678
    29  C   -0.172283
    30  C   -0.362937
    31  H    0.188025
    32  H    0.189311
    33  H    0.168657
    34  C   -0.107529
    35  H    0.148551
    36  H    0.148246
    37  H    0.164167
    38  H    0.161946
    39  H    0.121177
    40  N    0.415562
    41  O   -0.370643
    42  O   -0.369602
 Sum of Mulliken charges =  -0.00000

 Dipole moment (field-independent basis, Debye):
    X=             14.6768    Y=              1.8643    Z=             -3.2233  Tot=             15.1418
 Quadrupole moment (field-independent basis, Debye-Ang):
   XX=           -185.7792   YY=           -125.2776   ZZ=           -139.9092
   XY=             -2.6808   XZ=             -3.5604   YZ=              3.9185

  Exact polarizability: 537.250   6.244 305.896  19.249 -13.396 219.252
 Approx polarizability: 434.323   7.069 320.303  27.837 -17.123 241.263

                      1                      2                      3
                      A                      A                      A
 Frequencies --     28.7660                33.4786                44.2406
 Red. masses --      7.3402                 5.6328                 6.5092
 Frc consts  --      0.0036                 0.0037                 0.0075
 IR Inten    --      0.8712                 0.3154                 0.0829

                      4                      5                      6
                      A                      A                      A
 Frequencies --     68.7611                98.1721               110.2127
 Red. masses --      6.8240                 3.9924                 4.6731
 Frc consts  --      0.0190                 0.0227                 0.0334
 IR Inten    --      0.9511                 2.7504                 8.9343

                      7                      8                      9
                      A                      A                      A
 Frequencies --    121.0091               143.6700               164.4924
 Red. masses --      4.8882                 6.1456                 3.8997
 Frc consts  --      0.0422                 0.0747                 0.0622
 IR Inten    --      2.4141                 3.3713                10.9330

                     10                     11                     12
                      A                      A                      A
 Frequencies --    173.4580               187.1226               202.9267
 Red. masses --      3.0561                 3.3917                 1.2800
 Frc consts  --      0.0542                 0.0700                 0.0311
 IR Inten    --      0.3328                20.9694                20.0782

                     13                     14                     15
                      A                      A                      A
 Frequencies --    227.3875               236.6956               251.8515
 Red. masses --      2.4809                 1.4689                 1.9106
 Frc consts  --      0.0756                 0.0485                 0.0714
 IR Inten    --      1.6171                 1.5926                 0.4113

                     16                     17                     18
                      A                      A                      A
 Frequencies --    267.6729               280.6262               299.9613
 Red. masses --      3.9983                 1.2437                 4.9484
 Frc consts  --      0.1688                 0.0577                 0.2623
 IR Inten    --      7.8686                 0.7732                15.7999

                     19                     20                     21
                      A                      A                      A
 Frequencies --    322.9317               330.3922               344.3429
 Red. masses --      2.4839                 2.5025                 3.7243
 Frc consts  --      0.1526                 0.1609                 0.2602
 IR Inten    --      2.4963                 1.1684                 0.3575

                     22                     23                     24
                      A                      A                      A
 Frequencies --    367.2398               385.1857               409.5889
 Red. masses --      6.9719                 5.1134                 3.6899
 Frc consts  --      0.5540                 0.4470                 0.3647
 IR Inten    --      4.3279                77.7235                81.7978

                     25                     26                     27
                      A                      A                      A
 Frequencies --    442.1337               468.1277               483.7728
 Red. masses --      6.1636                 3.5007                 5.5784
 Frc consts  --      0.7099                 0.4520                 0.7692
 IR Inten    --      5.1575                 3.1624                23.2382

                     28                     29                     30
                      A                      A                      A
 Frequencies --    503.3915               536.5001               549.0732
 Red. masses --      2.9925                 5.7316                 3.4065
 Frc consts  --      0.4468                 0.9720                 0.6051
 IR Inten    --     16.3381                17.2860                 1.9503

                     31                     32                     33
                      A                      A                      A
 Frequencies --    561.5127               565.4852               574.5887
 Red. masses --      5.0868                 4.9438                 3.9877
 Frc consts  --      0.9450                 0.9314                 0.7757
 IR Inten    --      5.6556                11.9519                 2.3970

                     34                     35                     36
                      A                      A                      A
 Frequencies --    594.4107               644.6925               651.8148
 Red. masses --      3.5857                 4.4452                 4.7546
 Frc consts  --      0.7464                 1.0886                 1.1902
 IR Inten    --      1.0924                 3.6323                25.1565

                     37                     38                     39
                      A                      A                      A
 Frequencies --    680.2054               700.0682               751.1077
 Red. masses --      3.5994                 4.4692                 2.5790
 Frc consts  --      0.9812                 1.2905                 0.8573
 IR Inten    --    144.8192                 7.9156                31.0233

                     40                     41                     42
                      A                      A                      A
 Frequencies --    766.9016               778.9737               781.8254
 Red. masses --      3.0670                 2.1267                 1.9185
 Frc consts  --      1.0628                 0.7603                 0.6909
 IR Inten    --     44.0517                55.6977                23.3245

                     43                     44                     45
                      A                      A                      A
 Frequencies --    800.7757               802.7142               803.9669
 Red. masses --      3.6388                 4.1139                 4.4941
 Frc consts  --      1.3748                 1.5618                 1.7115
 IR Inten    --      3.1465                20.8724                14.2859

                     46                     47                     48
                      A                      A                      A
 Frequencies --    825.1027               863.1628               875.5290
 Red. masses --      2.4795                 6.3001                 2.4651
 Frc consts  --      0.9946                 2.7655                 1.1133
 IR Inten    --     68.6198                15.2454                36.3736

                     49                     50                     51
                      A                      A                      A
 Frequencies --    903.2516               911.8688               964.8614
 Red. masses --      1.4656                 3.6838                 3.8874
 Frc consts  --      0.7045                 1.8047                 2.1323
 IR Inten    --      0.1119                22.8353                59.3127

                     52                     53                     54
                      A                      A                      A
 Frequencies --    971.9068               977.0656               977.5241
 Red. masses --      2.3126                 1.4480                 1.5615
 Frc consts  --      1.2870                 0.8145                 0.8791
 IR Inten    --    211.4336                 0.3519                17.9191

                     55                     56                     57
                      A                      A                      A
 Frequencies --    980.0524              1016.3949              1017.3642
 Red. masses --      1.3900                 1.5575                 1.3245
 Frc consts  --      0.7866                 0.9480                 0.8077
 IR Inten    --     10.5571               202.4723                 6.8068

                     58                     59                     60
                      A                      A                      A
 Frequencies --   1021.1604              1045.0058              1057.3214
 Red. masses --      1.3140                 1.3646                 2.4495
 Frc consts  --      0.8073                 0.8780                 1.6134
 IR Inten    --      1.5298                 1.8515                39.0399

                     61                     62                     63
                      A                      A                      A
 Frequencies --   1069.3015              1109.9469              1118.8246
 Red. masses --      2.3561                 2.5631                 1.8126
 Frc consts  --      1.5873                 1.8605                 1.3368
 IR Inten    --     28.1133                12.4334               478.2564

                     64                     65                     66
                      A                      A                      A
 Frequencies --   1149.0853              1156.5030              1161.4234
 Red. masses --      1.4246                 1.4832                 1.4172
 Frc consts  --      1.1083                 1.1688                 1.1263
 IR Inten    --     11.7193                 3.0923                19.4423

                     67                     68                     69
                      A                      A                      A
 Frequencies --   1166.8905              1183.4444              1186.3286
 Red. masses --      1.7502                 3.5405                 1.4341
 Frc consts  --      1.4041                 2.9215                 1.1891
 IR Inten    --     60.9199                 8.2437                24.2314

                     70                     71                     72
                      A                      A                      A
 Frequencies --   1191.5799              1221.4340              1263.8055
 Red. masses --      2.0405                 2.7745                 2.1592
 Frc consts  --      1.7070                 2.4388                 2.0319
 IR Inten    --     95.0900                17.1226               231.9111

                     73                     74                     75
                      A                      A                      A
 Frequencies --   1269.1186              1281.4163              1304.1165
 Red. masses --      1.7221                 1.6018                 3.3189
 Frc consts  --      1.6342                 1.5497                 3.3256
 IR Inten    --    340.7406                38.9048                12.3184

                     76                     77                     78
                      A                      A                      A
 Frequencies --   1338.3009              1359.1252              1361.7166
 Red. masses --      2.0726                 3.0813                 4.9484
 Frc consts  --      2.1871                 3.3535                 5.4062
 IR Inten    --     13.7267               670.1741              2046.0679

                     79                     80                     81
                      A                      A                      A
 Frequencies --   1390.4698              1397.0490              1410.8716
 Red. masses --      3.9868                 2.4798                 1.3581
 Frc consts  --      4.5415                 2.8517                 1.5928
 IR Inten    --     24.4336                73.0632                14.6321

                     82                     83                     84
                      A                      A                      A
 Frequencies --   1415.0014              1434.4919              1450.7113
 Red. masses --      2.3461                 1.2205                 1.2880
 Frc consts  --      2.7676                 1.4798                 1.5971
 IR Inten    --     50.2949                 5.2773                60.9634

                     85                     86                     87
                      A                      A                      A
 Frequencies --   1480.5647              1484.8805              1489.9902
 Red. masses --      1.4179                 1.5123                 1.0562
 Frc consts  --      1.8313                 1.9645                 1.3816
 IR Inten    --     19.1441                73.6791                11.5171

                     88                     89                     90
                      A                      A                      A
 Frequencies --   1490.8667              1496.6827              1501.9261
 Red. masses --      1.0784                 1.2813                 1.0996
 Frc consts  --      1.4122                 1.6911                 1.4615
 IR Inten    --     25.3463               106.7534                 1.1756

                     91                     92                     93
                      A                      A                      A
 Frequencies --   1509.4470              1513.9107              1522.7470
 Red. masses --      1.1760                 1.9342                 2.7111
 Frc consts  --      1.5787                 2.6119                 3.7039
 IR Inten    --     27.7869               151.9206               178.2392

                     94                     95                     96
                      A                      A                      A
 Frequencies --   1529.2481              1541.4746              1577.8302
 Red. masses --      3.6004                 2.7924                 8.2131
 Frc consts  --      4.9609                 3.9093                12.0470
 IR Inten    --     78.1950               111.9787               357.7979

                     97                     98                     99
                      A                      A                      A
 Frequencies --   1610.8649              1639.6321              1669.6079
 Red. masses --      7.9687                 6.8590                 6.6807
 Frc consts  --     12.1830                10.8644                10.9723
 IR Inten    --    296.0529               527.7180                57.9465

                    100                    101                    102
                      A                      A                      A
 Frequencies --   1680.6507              1683.9835              1702.5063
 Red. masses --      6.9803                 6.8417                 7.6802
 Frc consts  --     11.6166                11.4312                13.1160
 IR Inten    --   1099.1804               106.9099                47.8038

                    103                    104                    105
                      A                      A                      A
 Frequencies --   3067.3967              3071.3225              3091.8295
 Red. masses --      1.0342                 1.0355                 1.0344
 Frc consts  --      5.7330                 5.7550                 5.8260
 IR Inten    --     17.5897                34.0865                10.6841

                    106                    107                    108
                      A                      A                      A
 Frequencies --   3139.6651              3142.1444              3145.2833
 Red. masses --      1.1036                 1.1041                 1.1033
 Frc consts  --      6.4097                 6.4226                 6.4306
 IR Inten    --     13.9191                19.0626                32.9933

                    109                    110                    111
                      A                      A                      A
 Frequencies --   3159.4703              3164.6249              3169.0097
 Red. masses --      1.0861                 1.1048                 1.1030
 Frc consts  --      6.3879                 6.5191                 6.5265
 IR Inten    --      9.1823                 4.7174                 4.3866

                    112                    113                    114
                      A                      A                      A
 Frequencies --   3186.6581              3200.0673              3200.9635
 Red. masses --      1.0885                 1.1039                 1.0880
 Frc consts  --      6.5127                 6.6601                 6.5682
 IR Inten    --      3.2950                 1.5904                 1.0701

                    115                    116                    117
                      A                      A                      A
 Frequencies --   3208.5291              3210.6677              3221.5172
 Red. masses --      1.0898                 1.0910                 1.0948
 Frc consts  --      6.6102                 6.6261                 6.6946
 IR Inten    --      6.0741                 6.6661                15.6086

                    118                    119                    120
                      A                      A                      A
 Frequencies --   3226.4685              3233.1692              3238.9082
 Red. masses --      1.0908                 1.0959                 1.0940
 Frc consts  --      6.6906                 6.7496                 6.7621
 IR Inten    --      0.4760                 2.7888                 2.4096

 - Thermochemistry -
 -------------------
 Temperature   298.150 Kelvin.  Pressure   1.00000 Atm.
 Atom     1 has atomic number  6 and mass  12.00000

 Molecular mass:   322.13174 amu.
 Principal axes and moments of inertia in atomic units:
                           1         2         3
     Eigenvalues --  2986.53320********************
           X            0.99999   0.00404   0.00169
           Y           -0.00406   0.99988   0.01487
           Z           -0.00163  -0.01488   0.99989
 This molecule is an asymmetric top.
 Rotational symmetry number  1.
 Warning -- assumption of classical behavior for rotation
           may cause significant error
 Rotational temperatures (Kelvin)      0.02900     0.00601     0.00555
 Rotational constants (GHZ):           0.60429     0.12517     0.11568
 Zero-point vibrational energy     888498.0 (Joules/Mol)
                                  212.35612 (Kcal/Mol)
 Warning -- explicit consideration of  34 degrees of freedom as
           vibrations may cause significant error
 Vibrational temperatures:     41.39    48.17    63.65    98.93   141.25
          (Kelvin)            158.57   174.11   206.71   236.67   249.57
                              269.23   291.97   327.16   340.55   362.36
                              385.12   403.76   431.58   464.63   475.36
                              495.43   528.38   554.20   589.31   636.13
                              673.53   696.04   724.27   771.90   789.99
                              807.89   813.61   826.71   855.22   927.57
                              937.82   978.66  1007.24  1080.68  1103.40
                             1120.77  1124.87  1152.14  1154.93  1156.73
                             1187.14  1241.90  1259.69  1299.58  1311.98
                             1388.22  1398.36  1405.78  1406.44  1410.08
                             1462.37  1463.76  1469.22  1503.53  1521.25
                             1538.49  1596.97  1609.74  1653.28  1663.95
                             1671.03  1678.90  1702.71  1706.86  1714.42
                             1757.37  1818.33  1825.98  1843.67  1876.33
                             1925.52  1955.48  1959.21  2000.58  2010.04
                             2029.93  2035.87  2063.91  2087.25  2130.20
                             2136.41  2143.76  2145.02  2153.39  2160.94
                             2171.76  2178.18  2190.89  2200.25  2217.84
                             2270.15  2317.68  2359.06  2402.19  2418.08
                             2422.88  2449.53  4413.30  4418.95  4448.45
                             4517.28  4520.84  4525.36  4545.77  4553.19
                             4559.50  4584.89  4604.18  4605.47  4616.36
                             4619.43  4635.04  4642.17  4651.81  4660.07

 Zero-point correction=                           0.338411 (Hartree/Particle)
 Thermal correction to Energy=                    0.358975
 Thermal correction to Enthalpy=                  0.359919
 Thermal correction to Gibbs Free Energy=         0.289055
 Sum of electronic and zero-point Energies=          -1069.506786
 Sum of electronic and thermal Energies=             -1069.486222
 Sum of electronic and thermal Enthalpies=           -1069.485278
 Sum of electronic and thermal Free Energies=        -1069.556143

                     E (Thermal)             CV                S
                      KCal/Mol        Cal/Mol-Kelvin    Cal/Mol-Kelvin
 Total                  225.260             80.810            149.148
 Electronic               0.000              0.000              0.000
 Translational            0.889              2.981             43.205
 Rotational               0.889              2.981             34.862
 Vibrational            223.483             74.848             71.081
 Vibration     1          0.593              1.984              5.913
 Vibration     2          0.594              1.983              5.612
 Vibration     3          0.595              1.980              5.060
 Vibration     4          0.598              1.969              4.189
 Vibration     5          0.604              1.950              3.490
 Vibration     6          0.606              1.941              3.265
 Vibration     7          0.609              1.932              3.084
 Vibration     8          0.616              1.909              2.754
 Vibration     9          0.623              1.886              2.497
 Vibration    10          0.627              1.875              2.398
 Vibration    11          0.632              1.858              2.256
 Vibration    12          0.639              1.836              2.106
 Vibration    13          0.651              1.799              1.899
 Vibration    14          0.656              1.785              1.828
 Vibration    15          0.664              1.760              1.718
 Vibration    16          0.673              1.733              1.611
 Vibration    17          0.680              1.709              1.530
 Vibration    18          0.692              1.674              1.417
 Vibration    19          0.708              1.630              1.295
 Vibration    20          0.713              1.615              1.258
 Vibration    21          0.723              1.587              1.192
 Vibration    22          0.740              1.540              1.091
 Vibration    23          0.754              1.502              1.019
 Vibration    24          0.774              1.449              0.928
 Vibration    25          0.802              1.378              0.820
 Vibration    26          0.825              1.321              0.743
 Vibration    27          0.840              1.286              0.700
 Vibration    28          0.859              1.242              0.650
 Vibration    29          0.892              1.169              0.573
 Vibration    30          0.904              1.142              0.546
 Vibration    31          0.917              1.115              0.521
 Vibration    32          0.921              1.106              0.513
 Vibration    33          0.931              1.086              0.495
 Vibration    34          0.952              1.044              0.459

                           ! Non-Optimized Parameters !

 1\1\GINC-N077\Freq\RCAM-B3LYP\def2TZVP\C19H18N2O3\ARTD\10-Mar-2024\0\\
 #P Geom=AllCheck Guess=TCheck SCRF=Check GenChk RCAM-B3LYP/def2TZVP Fr
 eq\\TITLE\\0,1\C,-2.4127588202,2.3108805177,0.6045620559\C,-1.59444500
 94,1.2279984627,0.3182477736\C,-0.2784871035,1.4119526559,-0.085967226
 6\C,0.1633724341,2.711978377,-0.1870265577\C,-0.636742746,3.8057253222
 ,0.0878598108\C,-1.9384500427,3.6131112269,0.4925751421\H,-3.434492329
 8,2.1392949063,0.9140829877\H,-1.9854218033,0.2237657991,0.4055153298\
 H,-2.58514728,4.4517904542,0.7140363484\H,0.354165626,0.5682335357,-0.

 Normal termination of Gaussian 16 at Sun Mar 10 12:11:56 2024.
