 Gaussian 16, Revision A.03,
 Gaussian 16:  ES64L-G16RevA.03 25-Dec-2016

 ----------------------------------------------------------------------
 #P PBE1PBE/def2TZVP opt freq=(noraman) scrf=(pcm,solvent=chloroform) E
 mpiricalDispersion=GD3BJ gfinput
 ----------------------------------------------------------------------

 -----
 TITLE
 -----
 Symbolic Z-matrix:
 Charge =  0 Multiplicity = 1

 SCF Done:  E(RPBE1PBE) =  -1069.10391996     A.U. after   15 cycles
 SCF Done:  E(RPBE1PBE) =  -1069.12441602     A.U. after   14 cycles
 SCF Done:  E(RPBE1PBE) =  -1069.12444381     A.U. after   14 cycles
 SCF Done:  E(RPBE1PBE) =  -1069.13297431     A.U. after   13 cycles
 SCF Done:  E(RPBE1PBE) =  -1069.06058612     A.U. after   15 cycles
 SCF Done:  E(RPBE1PBE) =  -1069.13862796     A.U. after   13 cycles
 SCF Done:  E(RPBE1PBE) =  -1069.14826357     A.U. after   13 cycles
 SCF Done:  E(RPBE1PBE) =  -1069.15307273     A.U. after   13 cycles
 SCF Done:  E(RPBE1PBE) =  -1069.15410446     A.U. after   13 cycles
 SCF Done:  E(RPBE1PBE) =  -1069.15569812     A.U. after   11 cycles
 SCF Done:  E(RPBE1PBE) =  -1069.15570518     A.U. after   13 cycles
 SCF Done:  E(RPBE1PBE) =  -1069.15616933     A.U. after   12 cycles
 SCF Done:  E(RPBE1PBE) =  -1069.15624952     A.U. after   11 cycles
 SCF Done:  E(RPBE1PBE) =  -1069.15627372     A.U. after   11 cycles
 SCF Done:  E(RPBE1PBE) =  -1069.15628054     A.U. after   10 cycles
 SCF Done:  E(RPBE1PBE) =  -1069.15628382     A.U. after   10 cycles
 SCF Done:  E(RPBE1PBE) =  -1069.15628534     A.U. after    9 cycles
 SCF Done:  E(RPBE1PBE) =  -1069.15628574     A.U. after    8 cycles
 SCF Done:  E(RPBE1PBE) =  -1069.15628592     A.U. after    7 cycles
 Optimization completed.
    -- Stationary point found.
 Normal termination of Gaussian 16 at Sun Mar 10 07:05:35 2024.

 ----------------------------------------------------------------------
 #P Geom=AllCheck Guess=TCheck SCRF=Check GenChk RPBE1PBE/def2TZVP Freq
 ----------------------------------------------------------------------

 Structure from the checkpoint file:  "mc1_gs_pbe0.chk"
 -----
 TITLE
 -----
 Charge =  0 Multiplicity = 1

                         Standard orientation:
 ---------------------------------------------------------------------
 Center     Atomic      Atomic             Coordinates (Angstroms)
 Number     Number       Type             X           Y           Z
 ---------------------------------------------------------------------
      1          6           0        5.075462   -1.652822    0.247800
      2          6           0        4.246569   -2.519321   -0.454529
      3          6           0        2.985407   -2.118786   -0.882433
      4          6           0        2.605029   -0.828309   -0.573237
      5          6           0        3.414283    0.050352    0.131898
      6          6           0        4.665054   -0.355762    0.546478
      7          1           0        6.051742   -1.993192    0.571120
      8          1           0        4.583276   -3.526094   -0.669959
      9          1           0        5.316733    0.312726    1.097451
     10          1           0        2.336459   -2.798870   -1.418823
     11          6           0        2.686247    1.356412    0.287789
     12          6           0        1.364286    1.041018   -0.380588
     13          7           0        1.399513   -0.172520   -0.893793
     14          6           0        2.460107    1.728959    1.754914
     15          1           0        1.913059    0.940996    2.270855
     16          1           0        1.883685    2.653381    1.823445
     17          1           0        3.424543    1.883213    2.242093
     18          6           0        3.408772    2.488406   -0.453634
     19          1           0        3.547084    2.249307   -1.509321
     20          1           0        4.390968    2.638354   -0.002678
     21          1           0        2.853352    3.424077   -0.370866
     22          6           0        0.316788    1.981782   -0.517374
     23          6           0       -1.821717    0.715353    0.023291
     24          6           0       -1.305066   -0.302951    0.938036
     25          8           0       -0.123408   -0.327608    1.328852
     26          6           0       -2.262726   -1.285812    1.390668
     27          6           0       -3.563767   -1.278407    1.004002
     28          6           0       -4.032318   -0.258036    0.149293
     29          6           0       -3.178997    0.722233   -0.303952
     30          6           0        0.387319   -0.784168   -1.716092
     31          1           0       -0.230091   -0.005312   -2.156065
     32          1           0       -0.241928   -1.445392   -1.118322
     33          1           0        0.875615   -1.356562   -2.503499
     34          6           0       -1.033281    1.801017   -0.460683
     35          1           0        0.661545    3.001534   -0.661538
     36          1           0       -1.616157    2.667827   -0.764925
     37          1           0       -3.573728    1.501902   -0.944033
     38          1           0       -4.257838   -2.034191    1.347518
     39          1           0       -1.887922   -2.051165    2.060352
     40          7           0       -5.405722   -0.233161   -0.240061
     41          8           0       -5.795132    0.665085   -0.974992
     42          8           0       -6.142915   -1.116193    0.177925
 ---------------------------------------------------------------------

 SCF Done:  E(RPBE1PBE) =  -1069.15628592     A.U. after    1 cycles

 The electronic state is 1-A.
 Alpha  occ. eigenvalues --  -19.22124 -19.22022 -19.16107 -14.60737 -14.48603
 Alpha  occ. eigenvalues --  -10.32295 -10.28812 -10.28680 -10.27568 -10.27346
 Alpha  occ. eigenvalues --  -10.26393 -10.26221 -10.25205 -10.24969 -10.24748
 Alpha  occ. eigenvalues --  -10.24657 -10.24513 -10.24432 -10.24163 -10.23983
 Alpha  occ. eigenvalues --  -10.23755 -10.23559 -10.22473 -10.21981  -1.25342
 Alpha  occ. eigenvalues --   -1.07112  -1.06885  -1.03637  -0.91059  -0.90100
 Alpha  occ. eigenvalues --   -0.88359  -0.85033  -0.80909  -0.79779  -0.79153
 Alpha  occ. eigenvalues --   -0.78810  -0.76128  -0.72814  -0.70228  -0.68478
 Alpha  occ. eigenvalues --   -0.67210  -0.65452  -0.63116  -0.61557  -0.60361
 Alpha  occ. eigenvalues --   -0.57999  -0.56585  -0.54710  -0.54662  -0.53881
 Alpha  occ. eigenvalues --   -0.52674  -0.52255  -0.50253  -0.49894  -0.48588
 Alpha  occ. eigenvalues --   -0.47902  -0.47696  -0.47188  -0.46826  -0.46139
 Alpha  occ. eigenvalues --   -0.45154  -0.44635  -0.43869  -0.42246  -0.41825
 Alpha  occ. eigenvalues --   -0.41657  -0.40609  -0.40198  -0.40148  -0.39150
 Alpha  occ. eigenvalues --   -0.38249  -0.37613  -0.37474  -0.36425  -0.35714
 Alpha  occ. eigenvalues --   -0.34941  -0.33219  -0.32139  -0.31979  -0.29960
 Alpha  occ. eigenvalues --   -0.28712  -0.28353  -0.25760  -0.24929  -0.21861
 Alpha virt. eigenvalues --   -0.09401  -0.06542  -0.02899  -0.02432  -0.00125
 Alpha virt. eigenvalues --    0.02192   0.03744   0.05390   0.05652   0.06179
 Alpha virt. eigenvalues --    0.06624   0.07820   0.08548   0.08962   0.09312

 Mulliken charges:
               1
     1  C   -0.117844
     2  C   -0.116465
     3  C   -0.245039
     4  C    0.161805
     5  C   -0.160851
     6  C   -0.239028
     7  H    0.139459
     8  H    0.142087
     9  H    0.138915
    10  H    0.152946
    11  C    0.468736
    12  C    0.096755
    13  N    0.184387
    14  C   -0.399690
    15  H    0.163649
    16  H    0.139015
    17  H    0.137829
    18  C   -0.389075
    19  H    0.148364
    20  H    0.147086
    21  H    0.146573
    22  C   -0.395245
    23  C    0.125301
    24  C    0.224464
    25  O   -0.463139
    26  C   -0.212997
    27  C   -0.191789
    28  C    0.043152
    29  C   -0.239116
    30  C   -0.356677
    31  H    0.185028
    32  H    0.178567
    33  H    0.171328
    34  C   -0.171508
    35  H    0.141475
    36  H    0.144617
    37  H    0.152638
    38  H    0.151008
    39  H    0.115527
    40  N    0.455826
    41  O   -0.379063
    42  O   -0.379011
 Sum of Mulliken charges =  -0.00000

 Dipole moment (field-independent basis, Debye):
    X=             14.2955    Y=              1.7292    Z=             -2.9523  Tot=             14.6993
 Quadrupole moment (field-independent basis, Debye-Ang):
   XX=           -182.7105   YY=           -123.4211   ZZ=           -139.3760
   XY=             -2.0890   XZ=             -3.7287   YZ=              3.6798

  Exact polarizability: 583.712   5.102 313.472  16.804 -14.155 220.384
 Approx polarizability: 634.225  13.313 409.719  35.274 -26.916 291.079

                      1                      2                      3
                      A                      A                      A
 Frequencies --     29.7788                38.0178                43.0737
 Red. masses --      7.1761                 6.0389                 5.7149
 Frc consts  --      0.0037                 0.0051                 0.0062
 IR Inten    --      0.8982                 0.3200                 0.0813

                      4                      5                      6
                      A                      A                      A
 Frequencies --     69.0350                91.2166               109.5758
 Red. masses --      6.9212                 3.9239                 5.0141
 Frc consts  --      0.0194                 0.0192                 0.0355
 IR Inten    --      0.8043                 2.0638                 8.1530

                      7                      8                      9
                      A                      A                      A
 Frequencies --    122.0365               143.2818               162.6439
 Red. masses --      4.5996                 5.9579                 4.3668
 Frc consts  --      0.0404                 0.0721                 0.0681
 IR Inten    --      3.3754                 3.1954                 8.8946

                     10                     11                     12
                      A                      A                      A
 Frequencies --    174.6495               186.5317               209.8426
 Red. masses --      3.1025                 2.6256                 1.5209
 Frc consts  --      0.0558                 0.0538                 0.0395
 IR Inten    --      0.7057                 9.8178                29.1963

                     13                     14                     15
                      A                      A                      A
 Frequencies --    225.2972               233.5031               248.1868
 Red. masses --      2.8812                 1.4227                 1.5888
 Frc consts  --      0.0862                 0.0457                 0.0577
 IR Inten    --      1.5858                 0.9536                 0.2086

                     16                     17                     18
                      A                      A                      A
 Frequencies --    265.0157               277.4263               296.7187
 Red. masses --      3.7340                 1.3096                 5.0822
 Frc consts  --      0.1545                 0.0594                 0.2636
 IR Inten    --      8.7399                 0.8586                13.4690

                     19                     20                     21
                      A                      A                      A
 Frequencies --    318.0838               325.4823               338.6734
 Red. masses --      2.5400                 2.3910                 3.7340
 Frc consts  --      0.1514                 0.1492                 0.2523
 IR Inten    --      2.9646                 0.6348                 0.5946

                     22                     23                     24
                      A                      A                      A
 Frequencies --    363.1705               380.0212               402.1578
 Red. masses --      6.4062                 5.3807                 3.6501
 Frc consts  --      0.4978                 0.4578                 0.3478
 IR Inten    --     10.7001                53.8233                92.3558

                     25                     26                     27
                      A                      A                      A
 Frequencies --    436.6634               462.5994               481.8002
 Red. masses --      6.2851                 3.4479                 5.6634
 Frc consts  --      0.7061                 0.4347                 0.7746
 IR Inten    --      5.7108                 2.0826                28.9923

                     28                     29                     30
                      A                      A                      A
 Frequencies --    494.3895               530.6910               542.9378
 Red. masses --      3.0154                 5.6565                 3.3221
 Frc consts  --      0.4342                 0.9386                 0.5770
 IR Inten    --     18.6616                12.0003                 6.3870

                     31                     32                     33
                      A                      A                      A
 Frequencies --    557.8777               561.5062               568.4352
 Red. masses --      5.4617                 5.2077                 3.9708
 Frc consts  --      1.0015                 0.9674                 0.7559
 IR Inten    --      2.7887                16.3805                 3.0147

                     34                     35                     36
                      A                      A                      A
 Frequencies --    585.7382               636.6959               645.2761
 Red. masses --      3.7100                 4.3439                 5.2033
 Frc consts  --      0.7499                 1.0375                 1.2765
 IR Inten    --      1.1948                 2.9037                27.9925

                     37                     38                     39
                      A                      A                      A
 Frequencies --    674.9794               693.6523               745.9538
 Red. masses --      3.5966                 4.5277                 2.5186
 Frc consts  --      0.9654                 1.2836                 0.8257
 IR Inten    --    144.2122                 9.9796                24.4994

                     40                     41                     42
                      A                      A                      A
 Frequencies --    757.6270               767.1047               773.9994
 Red. masses --      2.9378                 1.3597                 4.3073
 Frc consts  --      0.9935                 0.4714                 1.5203
 IR Inten    --     53.7190                65.9073                 7.4948

                     43                     44                     45
                      A                      A                      A
 Frequencies --    786.1391               797.3430               798.8037
 Red. masses --      3.8757                 3.2970                 6.1252
 Frc consts  --      1.4112                 1.2350                 2.3028
 IR Inten    --      6.0189                14.3487                20.7440

                     46                     47                     48
                      A                      A                      A
 Frequencies --    815.9007               855.7429               864.0906
 Red. masses --      2.3105                 5.9452                 2.5326
 Frc consts  --      0.9062                 2.5651                 1.1141
 IR Inten    --     64.3741                25.0103                29.3178

                     49                     50                     51
                      A                      A                      A
 Frequencies --    884.7342               907.3079               950.6096
 Red. masses --      1.4312                 3.4894                 1.4802
 Frc consts  --      0.6601                 1.6924                 0.7881
 IR Inten    --      0.1206                25.8122               103.4296

                     52                     53                     54
                      A                      A                      A
 Frequencies --    955.9359               960.2593               965.1555
 Red. masses --      1.3882                 3.5689                 2.2509
 Frc consts  --      0.7474                 1.9389                 1.2354
 IR Inten    --      1.6202                19.9146               173.7999

                     55                     56                     57
                      A                      A                      A
 Frequencies --    967.7838               992.1864               992.7221
 Red. masses --      1.4930                 1.5567                 1.3511
 Frc consts  --      0.8239                 0.9029                 0.7845
 IR Inten    --     37.0462               100.5933                29.4929

                     58                     59                     60
                      A                      A                      A
 Frequencies --    999.2144              1029.2665              1052.1784
 Red. masses --      1.2980                 1.3334                 2.3309
 Frc consts  --      0.7635                 0.8323                 1.5204
 IR Inten    --      0.6714                 0.3944                36.9566

                     61                     62                     63
                      A                      A                      A
 Frequencies --   1066.2251              1096.6013              1113.1115
 Red. masses --      2.3828                 2.5205                 1.7094
 Frc consts  --      1.5960                 1.7858                 1.2479
 IR Inten    --     37.3371                 0.7043               329.2637

                     64                     65                     66
                      A                      A                      A
 Frequencies --   1133.6019              1145.6783              1150.4427
 Red. masses --      1.4107                 1.4412                 1.4342
 Frc consts  --      1.0681                 1.1145                 1.1184
 IR Inten    --      7.2052                22.5750                23.8275

                     67                     68                     69
                      A                      A                      A
 Frequencies --   1156.5109              1171.3974              1177.3488
 Red. masses --      1.7220                 3.8638                 1.3060
 Frc consts  --      1.3570                 3.1238                 1.0666
 IR Inten    --     53.8348                 8.2719                15.5256

                     70                     71                     72
                      A                      A                      A
 Frequencies --   1186.4851              1219.6100              1256.3674
 Red. masses --      1.9476                 2.7764                 2.1104
 Frc consts  --      1.6154                 2.4331                 1.9626
 IR Inten    --    102.2074                13.8843                92.8850

                     73                     74                     75
                      A                      A                      A
 Frequencies --   1263.2978              1265.9219              1292.7931
 Red. masses --      1.7352                 1.5716                 3.3173
 Frc consts  --      1.6316                 1.4839                 3.2665
 IR Inten    --    320.5723                 6.9690                 8.6505

                     76                     77                     78
                      A                      A                      A
 Frequencies --   1328.9473              1361.6227              1367.4593
 Red. masses --      1.7743                 3.2295                 7.4706
 Frc consts  --      1.8462                 3.5278                 8.2307
 IR Inten    --     11.5363               103.7086              2886.2394

                     79                     80                     81
                      A                      A                      A
 Frequencies --   1386.3429              1390.3950              1404.9163
 Red. masses --      1.2423                 2.2301                 3.3329
 Frc consts  --      1.4068                 2.5401                 3.8759
 IR Inten    --     12.5977                 7.0416               122.1225

                     82                     83                     84
                      A                      A                      A
 Frequencies --   1406.4678              1412.1300              1431.2942
 Red. masses --      2.3842                 1.6289                 1.2845
 Frc consts  --      2.7787                 1.9138                 1.5504
 IR Inten    --      7.8756                 1.9608                49.1517

                     85                     86                     87
                      A                      A                      A
 Frequencies --   1464.8430              1470.5127              1472.0607
 Red. masses --      1.1023                 1.0676                 1.1003
 Frc consts  --      1.3935                 1.3601                 1.4048
 IR Inten    --     14.0532                 6.1255                34.2193

                     88                     89                     90
                      A                      A                      A
 Frequencies --   1473.4961              1482.1728              1485.8442
 Red. masses --      1.8106                 1.3879                 1.1036
 Frc consts  --      2.3161                 1.7964                 1.4356
 IR Inten    --     21.9374                94.6988                 1.9578

                     91                     92                     93
                      A                      A                      A
 Frequencies --   1491.7471              1503.1066              1510.2525
 Red. masses --      1.1419                 2.2538                 2.4968
 Frc consts  --      1.4971                 3.0001                 3.3553
 IR Inten    --     23.6244               118.7993               132.6383

                     94                     95                     96
                      A                      A                      A
 Frequencies --   1530.4094              1532.4041              1585.1672
 Red. masses --      3.4804                 4.5659                 9.5133
 Frc consts  --      4.8028                 6.3172                14.0842
 IR Inten    --    106.1068               284.8274               377.1673

                     97                     98                     99
                      A                      A                      A
 Frequencies --   1611.6295              1622.3320              1658.5809
 Red. masses --      8.6616                 6.6435                 7.3942
 Frc consts  --     13.2550                10.3021                11.9843
 IR Inten    --    225.0157               275.8965               162.9597

                    100                    101                    102
                      A                      A                      A
 Frequencies --   1670.6658              1671.9916              1687.7416
 Red. masses --      7.1394                 7.3971                 7.8637
 Frc consts  --     11.7407                12.1837                13.1975
 IR Inten    --     17.0919              1119.8483                64.0577

                    103                    104                    105
                      A                      A                      A
 Frequencies --   3058.7437              3061.5442              3077.4990
 Red. masses --      1.0339                 1.0349                 1.0345
 Frc consts  --      5.6992                 5.7152                 5.7726
 IR Inten    --     18.8410                37.4693                11.8853

                    106                    107                    108
                      A                      A                      A
 Frequencies --   3139.2635              3142.5769              3144.6585
 Red. masses --      1.1032                 1.1024                 1.1036
 Frc consts  --      6.4055                 6.4147                 6.4301
 IR Inten    --      7.5096                38.0977                17.3685

                    109                    110                    111
                      A                      A                      A
 Frequencies --   3151.1727              3156.1539              3165.5411
 Red. masses --      1.0855                 1.1030                 1.1028
 Frc consts  --      6.3509                 6.4733                 6.5112
 IR Inten    --      7.6972                 5.0976                 5.9780

                    112                    113                    114
                      A                      A                      A
 Frequencies --   3176.3785              3189.5328              3196.6040
 Red. masses --      1.0883                 1.1040                 1.0874
 Frc consts  --      6.4693                 6.6172                 6.5465
 IR Inten    --      5.9651                 2.4619                 1.9564

                    115                    116                    117
                      A                      A                      A
 Frequencies --   3203.7184              3206.6507              3217.5288
 Red. masses --      1.0891                 1.0902                 1.0905
 Frc consts  --      6.5863                 6.6047                 6.6514
 IR Inten    --      5.8953                 6.2422                 0.2694

                    118                    119                    120
                      A                      A                      A
 Frequencies --   3217.9673              3228.3135              3231.9959
 Red. masses --      1.0943                 1.0965                 1.0940
 Frc consts  --      6.6767                 6.7328                 6.7330
 IR Inten    --     16.4892                 4.6869                 2.7108

 - Thermochemistry -
 -------------------
 Temperature   298.150 Kelvin.  Pressure   1.00000 Atm.
 Atom     1 has atomic number  6 and mass  12.00000

 Molecular mass:   322.13174 amu.
 Principal axes and moments of inertia in atomic units:
                           1         2         3
     Eigenvalues --  2973.97535********************
           X            0.99999   0.00428   0.00145
           Y           -0.00430   0.99990   0.01370
           Z           -0.00139  -0.01370   0.99991
 This molecule is an asymmetric top.
 Rotational symmetry number  1.
 Warning -- assumption of classical behavior for rotation
           may cause significant error
 Rotational temperatures (Kelvin)      0.02912     0.00598     0.00552
 Rotational constants (GHZ):           0.60684     0.12463     0.11502
 Zero-point vibrational energy     882978.6 (Joules/Mol)
                                  211.03695 (Kcal/Mol)
 Warning -- explicit consideration of  34 degrees of freedom as
           vibrations may cause significant error
 Vibrational temperatures:     42.85    54.70    61.97    99.33   131.24
          (Kelvin)            157.66   175.58   206.15   234.01   251.28
                              268.38   301.92   324.15   335.96   357.09
                              381.30   399.15   426.91   457.65   468.30
                              487.28   522.52   546.77   578.62   628.26
                              665.58   693.20   711.32   763.55   781.17
                              802.66   807.88   817.85   842.75   916.06
                              928.41   971.14   998.01  1073.26  1090.06
                             1103.69  1113.61  1131.08  1147.20  1149.30
                             1173.90  1231.22  1243.23  1272.94  1305.41
                             1367.72  1375.38  1381.60  1388.64  1392.43
                             1427.53  1428.31  1437.65  1480.88  1513.85
                             1534.06  1577.76  1601.52  1631.00  1648.38
                             1655.23  1663.96  1685.38  1693.94  1707.09
                             1754.75  1807.63  1817.60  1821.38  1860.04
                             1912.06  1959.07  1967.47  1994.64  2000.47
                             2021.36  2023.59  2031.74  2059.31  2107.58
                             2115.74  2117.97  2120.03  2132.52  2137.80
                             2146.29  2162.64  2172.92  2201.92  2204.79
                             2280.70  2318.78  2334.17  2386.33  2403.72
                             2405.62  2428.28  4400.85  4404.88  4427.83
                             4516.70  4521.47  4524.46  4533.83  4541.00
                             4554.51  4570.10  4589.03  4599.20  4609.44
                             4613.66  4629.31  4629.94  4644.82  4650.12

 Zero-point correction=                           0.336309 (Hartree/Particle)
 Thermal correction to Energy=                    0.357047
 Thermal correction to Enthalpy=                  0.357991
 Thermal correction to Gibbs Free Energy=         0.286918
 Sum of electronic and zero-point Energies=          -1068.819977
 Sum of electronic and thermal Energies=             -1068.799239
 Sum of electronic and thermal Enthalpies=           -1068.798295
 Sum of electronic and thermal Free Energies=        -1068.869368

                     E (Thermal)             CV                S
                      KCal/Mol        Cal/Mol-Kelvin    Cal/Mol-Kelvin
 Total                  224.051             81.600            149.587
 Electronic               0.000              0.000              0.000
 Translational            0.889              2.981             43.205
 Rotational               0.889              2.981             34.868
 Vibrational            222.273             75.638             71.515
 Vibration     1          0.594              1.984              5.844
 Vibration     2          0.594              1.982              5.360
 Vibration     3          0.595              1.980              5.112
 Vibration     4          0.598              1.969              4.181
 Vibration     5          0.602              1.955              3.634
 Vibration     6          0.606              1.942              3.276
 Vibration     7          0.610              1.931              3.068
 Vibration     8          0.616              1.910              2.760
 Vibration     9          0.623              1.888              2.519
 Vibration    10          0.627              1.874              2.385
 Vibration    11          0.632              1.858              2.262
 Vibration    12          0.642              1.826              2.045
 Vibration    13          0.650              1.803              1.916
 Vibration    14          0.654              1.790              1.852
 Vibration    15          0.662              1.766              1.743
 Vibration    16          0.671              1.737              1.628
 Vibration    17          0.678              1.715              1.549
 Vibration    18          0.690              1.680              1.435
 Vibration    19          0.704              1.639              1.320
 Vibration    20          0.710              1.625              1.282
 Vibration    21          0.719              1.598              1.218
 Vibration    22          0.737              1.548              1.108
 Vibration    23          0.750              1.513              1.039
 Vibration    24          0.768              1.465              0.955
 Vibration    25          0.797              1.390              0.837
 Vibration    26          0.820              1.333              0.759
 Vibration    27          0.838              1.290              0.705
 Vibration    28          0.850              1.262              0.672
 Vibration    29          0.886              1.182              0.586
 Vibration    30          0.898              1.155              0.559
 Vibration    31          0.913              1.122              0.528
 Vibration    32          0.917              1.115              0.521
 Vibration    33          0.924              1.100              0.507
 Vibration    34          0.943              1.062              0.475

 Optimization completed.
    -- Stationary point found.
 Normal termination of Gaussian 16 at Sun Mar 10 08:53:09 2024.
