 Gaussian 16, Revision A.03,
 Gaussian 16:  ES64L-G16RevA.03 25-Dec-2016

 ----------------------------------------------------------------------
 #p M062X/def2TZVP SCRF(PCM,Solvent=chloroform) TD(Singlets,NStates=5,
 root=1) integral=ultrafine opt guess=(read) geom=(allcheck) gfinput
 ----------------------------------------------------------------------

 Structure from the checkpoint file:  "mc1_s1_m062x.chk"
 -----
 TITLE
 -----
 Charge =  0 Multiplicity = 1

 SCF Done:  E(RM062X) =  -1069.89655171     A.U. after    1 cycles
 Total Energy, E(TD-HF/TD-DFT) =  -1069.79370964
 SCF Done:  E(RM062X) =  -1069.87151665     A.U. after   16 cycles
 Total Energy, E(TD-HF/TD-DFT) =  -1069.79059147
 SCF Done:  E(RM062X) =  -1069.88941527     A.U. after   15 cycles
 Total Energy, E(TD-HF/TD-DFT) =  -1069.80085466
 SCF Done:  E(RM062X) =  -1069.88677854     A.U. after   15 cycles
 Total Energy, E(TD-HF/TD-DFT) =  -1069.80392064
 SCF Done:  E(RM062X) =  -1069.87779109     A.U. after   14 cycles
 Total Energy, E(TD-HF/TD-DFT) =  -1069.80375512
 SCF Done:  E(RM062X) =  -1069.87412911     A.U. after   15 cycles
 Total Energy, E(TD-HF/TD-DFT) =  -1069.80602736
 SCF Done:  E(RM062X) =  -1069.87471983     A.U. after   15 cycles
 Total Energy, E(TD-HF/TD-DFT) =  -1069.80752083
 SCF Done:  E(RM062X) =  -1069.88010128     A.U. after   14 cycles
 Total Energy, E(TD-HF/TD-DFT) =  -1069.80967590
 SCF Done:  E(RM062X) =  -1069.87321895     A.U. after   15 cycles
 Total Energy, E(TD-HF/TD-DFT) =  -1069.81020473
 SCF Done:  E(RM062X) =  -1069.87196601     A.U. after   15 cycles
 Total Energy, E(TD-HF/TD-DFT) =  -1069.81069982
 SCF Done:  E(RM062X) =  -1069.87470540     A.U. after   15 cycles
 Total Energy, E(TD-HF/TD-DFT) =  -1069.81088996
 SCF Done:  E(RM062X) =  -1069.87241431     A.U. after   15 cycles
 Total Energy, E(TD-HF/TD-DFT) =  -1069.81119076
 SCF Done:  E(RM062X) =  -1069.87158253     A.U. after   14 cycles
 Total Energy, E(TD-HF/TD-DFT) =  -1069.81127524
 SCF Done:  E(RM062X) =  -1069.87060178     A.U. after   14 cycles
 Total Energy, E(TD-HF/TD-DFT) =  -1069.81128632
 SCF Done:  E(RM062X) =  -1069.87113972     A.U. after   13 cycles
 Total Energy, E(TD-HF/TD-DFT) =  -1069.81130763
 SCF Done:  E(RM062X) =  -1069.87125652     A.U. after   11 cycles
 Total Energy, E(TD-HF/TD-DFT) =  -1069.81131068
 SCF Done:  E(RM062X) =  -1069.87125088     A.U. after    9 cycles

 Excitation energies and oscillator strengths:

 Excited State   1:      Singlet-A      1.6310 eV  760.15 nm  f=0.0908  <S**2>=0.000
      85 -> 86         0.69556
 This state for optimization and/or second-order correction.
 Total Energy, E(TD-HF/TD-DFT) =  -1069.81131125
 Copying the excited state density for this state as the 1-particle RhoCI density.

 Excited State   2:      Singlet-A      3.0939 eV  400.73 nm  f=0.0443  <S**2>=0.000
      83 -> 86        -0.65029
      83 -> 87         0.13536
      85 -> 87         0.12452

 Excited State   3:      Singlet-A      3.3521 eV  369.87 nm  f=0.3095  <S**2>=0.000
      84 -> 86        -0.69149

 Excited State   4:      Singlet-A      3.6632 eV  338.46 nm  f=0.5339  <S**2>=0.000
      83 -> 86        -0.11922
      85 -> 87        -0.67898

 Excited State   5:      Singlet-A      4.2568 eV  291.26 nm  f=0.0548  <S**2>=0.000
      81 -> 86        -0.48030
      82 -> 86         0.38504
      83 -> 86        -0.12378
      85 -> 89        -0.18908
      85 -> 90         0.14513

 Optimization completed.
    -- Stationary point found.

                         Standard orientation:
 ---------------------------------------------------------------------
 Center     Atomic      Atomic             Coordinates (Angstroms)
 Number     Number       Type             X           Y           Z
 ---------------------------------------------------------------------
      1          6           0        3.927735   -2.520579    0.266185
      2          6           0        2.787910   -3.116801   -0.263136
      3          6           0        1.696448   -2.353697   -0.666609
      4          6           0        1.790651   -0.980161   -0.508142
      5          6           0        2.931601   -0.365628    0.004775
      6          6           0        4.008509   -1.133555    0.394978
      7          1           0        4.759828   -3.138376    0.576189
      8          1           0        2.744556   -4.193701   -0.359810
      9          1           0        4.904531   -0.670795    0.791214
     10          1           0        0.806608   -2.818273   -1.070537
     11          6           0        2.753920    1.133539   -0.051648
     12          6           0        1.293572    1.226230   -0.457142
     13          7           0        0.835650   -0.009947   -0.829164
     14          6           0        3.058436    1.829681    1.273736
     15          1           0        2.438398    1.424907    2.070333
     16          1           0        2.865804    2.900706    1.191812
     17          1           0        4.111133    1.693449    1.527619
     18          6           0        3.636376    1.724680   -1.170694
     19          1           0        3.434907    1.237852   -2.125263
     20          1           0        4.689009    1.580023   -0.921405
     21          1           0        3.449158    2.794763   -1.273490
     22          6           0        0.524789    2.401201   -0.426846
     23          6           0       -1.574441    1.328437    0.292962
     24          6           0       -0.931066    0.473057    1.317771
     25          8           0        0.067062    0.858971    1.938328
     26          6           0       -1.538410   -0.812147    1.580101
     27          6           0       -2.758368   -1.137539    1.067905
     28          6           0       -3.409738   -0.211303    0.228770
     29          6           0       -2.844540    0.989169   -0.157915
     30          6           0       -0.210050   -0.303760   -1.797394
     31          1           0       -0.636970    0.627533   -2.155999
     32          1           0       -0.998985   -0.914582   -1.355426
     33          1           0        0.231044   -0.846701   -2.635851
     34          6           0       -0.839979    2.449934   -0.219548
     35          1           0        1.065273    3.335236   -0.548078
     36          1           0       -1.381333    3.360821   -0.448848
     37          1           0       -3.366989    1.623817   -0.860208
     38          1           0       -3.245358   -2.072122    1.302864
     39          1           0       -1.025345   -1.464581    2.273914
     40          7           0       -4.730821   -0.556952   -0.290692
     41          8           0       -5.307565    0.261845   -0.976928
     42          8           0       -5.184397   -1.647845   -0.009987
 ---------------------------------------------------------------------

 The electronic state is 1-A.
 Alpha  occ. eigenvalues --  -19.64700 -19.64629 -19.57491 -14.98460 -14.85047
 Alpha  occ. eigenvalues --  -10.65560 -10.60521 -10.60279 -10.59581 -10.59227
 Alpha  occ. eigenvalues --  -10.59187 -10.57662 -10.56798 -10.56522 -10.56504
 Alpha  occ. eigenvalues --  -10.56462 -10.56158 -10.55906 -10.55723 -10.55666
 Alpha  occ. eigenvalues --  -10.55563 -10.54692 -10.53898 -10.53207  -1.35910
 Alpha  occ. eigenvalues --   -1.17084  -1.14594  -1.12758  -0.98600  -0.97518
 Alpha  occ. eigenvalues --   -0.96215  -0.92833  -0.87515  -0.86873  -0.86360
 Alpha  occ. eigenvalues --   -0.85955  -0.82807  -0.79984  -0.77366  -0.74907
 Alpha  occ. eigenvalues --   -0.73875  -0.71501  -0.69187  -0.67690  -0.66484
 Alpha  occ. eigenvalues --   -0.65064  -0.62622  -0.61877  -0.60407  -0.60266
 Alpha  occ. eigenvalues --   -0.59375  -0.57980  -0.56039  -0.55715  -0.54454
 Alpha  occ. eigenvalues --   -0.53595  -0.53084  -0.52841  -0.52333  -0.51393
 Alpha  occ. eigenvalues --   -0.50883  -0.50522  -0.49115  -0.47930  -0.47596
 Alpha  occ. eigenvalues --   -0.46759  -0.46190  -0.45672  -0.45474  -0.44393
 Alpha  occ. eigenvalues --   -0.43595  -0.42747  -0.42736  -0.41888  -0.40391
 Alpha  occ. eigenvalues --   -0.39074  -0.38405  -0.37753  -0.37427  -0.36816
 Alpha  occ. eigenvalues --   -0.33053  -0.32547  -0.30719  -0.29400  -0.24188
 Alpha virt. eigenvalues --   -0.09062  -0.02921   0.00142   0.00595   0.02123
 Alpha virt. eigenvalues --    0.05065   0.05994   0.07266   0.08037   0.08228
 Alpha virt. eigenvalues --    0.08659   0.09847   0.10231   0.10490   0.11528

 Mulliken charges:
               1
     1  C   -0.155047
     2  C   -0.149029
     3  C   -0.205377
     4  C    0.134854
     5  C   -0.025548
     6  C   -0.180027
     7  H    0.165337
     8  H    0.166744
     9  H    0.171800
    10  H    0.187390
    11  C    0.036906
    12  C    0.116416
    13  N   -0.004483
    14  C   -0.428869
    15  H    0.190895
    16  H    0.165040
    17  H    0.163491
    18  C   -0.404225
    19  H    0.169496
    20  H    0.176307
    21  H    0.171157
    22  C   -0.190399
    23  C   -0.069525
    24  C    0.273351
    25  O   -0.463786
    26  C   -0.301855
    27  C   -0.134601
    28  C   -0.041682
    29  C   -0.157258
    30  C   -0.422047
    31  H    0.203953
    32  H    0.217925
    33  H    0.203748
    34  C   -0.162904
    35  H    0.181768
    36  H    0.178585
    37  H    0.186976
    38  H    0.187084
    39  H    0.155760
    40  N    0.493398
    41  O   -0.401427
    42  O   -0.400293
 Sum of Mulliken charges =  -0.00000

 Dipole moment (field-independent basis, Debye):
    X=             12.5488    Y=              1.5581    Z=             -4.7842  Tot=             13.5199
 Quadrupole moment (field-independent basis, Debye-Ang):
   XX=           -171.6844   YY=           -123.6271   ZZ=           -145.4885
   XY=             -6.8104   XZ=             -4.9315   YZ=             -5.3740

 Normal termination of Gaussian 16 at Mon Mar 11 22:59:54 2024.
