 Gaussian 16, Revision A.03,
 Gaussian 16:  ES64L-G16RevA.03 25-Dec-2016

 ----------------------------------------------------------------------
 #p M062X/def2TZVP SCRF(PCM,Solvent=acetonitrile) TD(Singlets,NStates=5
 , root=1) integral=ultrafine opt guess=(read) geom=(allcheck) gfinput
 ----------------------------------------------------------------------

 Structure from the checkpoint file:  "mc1_s1_m062x.chk"
 -----
 TITLE
 -----
 Charge =  0 Multiplicity = 1

 SCF Done:  E(RM062X) =  -1069.90308163     A.U. after    1 cycles
 Total Energy, E(TD-HF/TD-DFT) =  -1069.79778358
 SCF Done:  E(RM062X) =  -1069.88249600     A.U. after   16 cycles
 Total Energy, E(TD-HF/TD-DFT) =  -1069.79826993
 SCF Done:  E(RM062X) =  -1069.89536690     A.U. after   16 cycles
 Total Energy, E(TD-HF/TD-DFT) =  -1069.80697953
 SCF Done:  E(RM062X) =  -1069.89268084     A.U. after   15 cycles
 Total Energy, E(TD-HF/TD-DFT) =  -1069.80950966
 SCF Done:  E(RM062X) =  -1069.88349780     A.U. after   13 cycles
 Total Energy, E(TD-HF/TD-DFT) =  -1069.80834422
 SCF Done:  E(RM062X) =  -1069.88051403     A.U. after   15 cycles
 Total Energy, E(TD-HF/TD-DFT) =  -1069.80949885
 SCF Done:  E(RM062X) =  -1069.88863273     A.U. after   12 cycles
 Total Energy, E(TD-HF/TD-DFT) =  -1069.81126332
 SCF Done:  E(RM062X) =  -1069.88396991     A.U. after   15 cycles
 Total Energy, E(TD-HF/TD-DFT) =  -1069.81288673
 SCF Done:  E(RM062X) =  -1069.88109103     A.U. after   15 cycles
 Total Energy, E(TD-HF/TD-DFT) =  -1069.81429031
 SCF Done:  E(RM062X) =  -1069.88183902     A.U. after   14 cycles
 Total Energy, E(TD-HF/TD-DFT) =  -1069.81500558
 SCF Done:  E(RM062X) =  -1069.87688793     A.U. after   13 cycles
 Total Energy, E(TD-HF/TD-DFT) =  -1069.81532684
 SCF Done:  E(RM062X) =  -1069.87886218     A.U. after   14 cycles
 Total Energy, E(TD-HF/TD-DFT) =  -1069.81554646
 SCF Done:  E(RM062X) =  -1069.87710190     A.U. after   14 cycles
 Total Energy, E(TD-HF/TD-DFT) =  -1069.81560294
 SCF Done:  E(RM062X) =  -1069.87759938     A.U. after   11 cycles
 Total Energy, E(TD-HF/TD-DFT) =  -1069.81568166
 SCF Done:  E(RM062X) =  -1069.87767477     A.U. after   11 cycles
 Total Energy, E(TD-HF/TD-DFT) =  -1069.81569379
 SCF Done:  E(RM062X) =  -1069.87768787     A.U. after   11 cycles
 Total Energy, E(TD-HF/TD-DFT) =  -1069.81569578
 SCF Done:  E(RM062X) =  -1069.87762690     A.U. after   10 cycles
 Total Energy, E(TD-HF/TD-DFT) =  -1069.81569689
 SCF Done:  E(RM062X) =  -1069.87762438     A.U. after    9 cycles

 Excitation energies and oscillator strengths:

 Excited State   1:      Singlet-A      1.6851 eV  735.76 nm  f=0.1541  <S**2>=0.000
      85 -> 86         0.69629
 This state for optimization and/or second-order correction.
 Total Energy, E(TD-HF/TD-DFT) =  -1069.81569734
 Copying the excited state density for this state as the 1-particle RhoCI density.

 Excited State   2:      Singlet-A      3.1974 eV  387.77 nm  f=0.1005  <S**2>=0.000
      81 -> 86         0.14142
      83 -> 86        -0.60761
      83 -> 87         0.15664
      85 -> 87         0.20074

 Excited State   3:      Singlet-A      3.3332 eV  371.97 nm  f=0.3144  <S**2>=0.000
      84 -> 86        -0.69254

 Excited State   4:      Singlet-A      3.5450 eV  349.75 nm  f=0.5691  <S**2>=0.000
      83 -> 86        -0.18699
      84 -> 87         0.10230
      85 -> 87        -0.65770

 Excited State   5:      Singlet-A      4.2806 eV  289.64 nm  f=0.0403  <S**2>=0.000
      79 -> 87         0.20897
      81 -> 86        -0.47275
      81 -> 87         0.10021
      82 -> 86         0.30640
      83 -> 86        -0.19893
      85 -> 89        -0.15330
      85 -> 90         0.10861

 Optimization completed.
    -- Stationary point found.

                         Standard orientation:
 ---------------------------------------------------------------------
 Center     Atomic      Atomic             Coordinates (Angstroms)
 Number     Number       Type             X           Y           Z
 ---------------------------------------------------------------------
      1          6           0        3.953157   -2.502506    0.266980
      2          6           0        2.819173   -3.102145   -0.273729
      3          6           0        1.726510   -2.343309   -0.680648
      4          6           0        1.812752   -0.969240   -0.513435
      5          6           0        2.947966   -0.351466    0.010866
      6          6           0        4.026760   -1.115730    0.404329
      7          1           0        4.786615   -3.117995    0.578076
      8          1           0        2.782628   -4.178704   -0.376911
      9          1           0        4.918566   -0.650768    0.807454
     10          1           0        0.842254   -2.810181   -1.093912
     11          6           0        2.762713    1.146297   -0.040904
     12          6           0        1.302215    1.232799   -0.448419
     13          7           0        0.855611   -0.003386   -0.832940
     14          6           0        3.064611    1.840103    1.285991
     15          1           0        2.439696    1.436046    2.079619
     16          1           0        2.878550    2.912209    1.204620
     17          1           0        4.115280    1.697797    1.544106
     18          6           0        3.640495    1.745074   -1.160168
     19          1           0        3.439315    1.259628   -2.115443
     20          1           0        4.693587    1.604348   -0.911118
     21          1           0        3.446882    2.814173   -1.259073
     22          6           0        0.525264    2.395362   -0.400459
     23          6           0       -1.578997    1.308328    0.291644
     24          6           0       -0.934660    0.430879    1.302317
     25          8           0        0.052198    0.810195    1.945103
     26          6           0       -1.540725   -0.861898    1.530735
     27          6           0       -2.765363   -1.169038    1.023564
     28          6           0       -3.431410   -0.213080    0.222604
     29          6           0       -2.870611    0.992515   -0.137109
     30          6           0       -0.190316   -0.297994   -1.803583
     31          1           0       -0.614657    0.632851   -2.165730
     32          1           0       -0.980050   -0.908116   -1.362704
     33          1           0        0.254314   -0.842137   -2.638672
     34          6           0       -0.854321    2.418134   -0.225963
     35          1           0        1.056029    3.338350   -0.490362
     36          1           0       -1.409176    3.302991   -0.519328
     37          1           0       -3.399319    1.653060   -0.810186
     38          1           0       -3.249249   -2.110508    1.236153
     39          1           0       -1.023295   -1.537679    2.198806
     40          7           0       -4.761056   -0.538495   -0.279091
     41          8           0       -5.355397    0.303410   -0.922913
     42          8           0       -5.213192   -1.638693   -0.028296
 ---------------------------------------------------------------------

 The electronic state is 1-A.
 Alpha  occ. eigenvalues --  -19.65448 -19.65373 -19.58370 -14.99182 -14.84410
 Alpha  occ. eigenvalues --  -10.64868 -10.61258 -10.59919 -10.59146 -10.59029
 Alpha  occ. eigenvalues --  -10.58705 -10.58278 -10.56969 -10.56420 -10.56302
 Alpha  occ. eigenvalues --  -10.56128 -10.56093 -10.55786 -10.55548 -10.55291
 Alpha  occ. eigenvalues --  -10.55093 -10.54880 -10.53776 -10.53668  -1.36594
 Alpha  occ. eigenvalues --   -1.17724  -1.14355  -1.13258  -0.98362  -0.97864
 Alpha  occ. eigenvalues --   -0.95811  -0.92756  -0.87721  -0.87050  -0.86276
 Alpha  occ. eigenvalues --   -0.85538  -0.82557  -0.79552  -0.77277  -0.75195
 Alpha  occ. eigenvalues --   -0.73796  -0.71263  -0.69264  -0.67679  -0.66454
 Alpha  occ. eigenvalues --   -0.65408  -0.62620  -0.62539  -0.60777  -0.59943
 Alpha  occ. eigenvalues --   -0.59287  -0.57622  -0.55947  -0.55906  -0.54727
 Alpha  occ. eigenvalues --   -0.53370  -0.52684  -0.52609  -0.51968  -0.51131
 Alpha  occ. eigenvalues --   -0.50945  -0.50408  -0.48862  -0.47744  -0.47394
 Alpha  occ. eigenvalues --   -0.47093  -0.46128  -0.45778  -0.45196  -0.44003
 Alpha  occ. eigenvalues --   -0.43710  -0.42787  -0.42295  -0.41791  -0.40117
 Alpha  occ. eigenvalues --   -0.39276  -0.39157  -0.38505  -0.38086  -0.36912
 Alpha  occ. eigenvalues --   -0.33268  -0.32273  -0.31307  -0.29263  -0.24485
 Alpha virt. eigenvalues --   -0.09017  -0.03629   0.00450   0.00541   0.02276
 Alpha virt. eigenvalues --    0.05329   0.06431   0.07640   0.08076   0.08668
 Alpha virt. eigenvalues --    0.08940   0.09988   0.10371   0.10847   0.11708

 Mulliken charges:
               1
     1  C   -0.162242
     2  C   -0.155216
     3  C   -0.210662
     4  C    0.135890
     5  C   -0.047455
     6  C   -0.183498
     7  H    0.170096
     8  H    0.171336
     9  H    0.177543
    10  H    0.191771
    11  C    0.054997
    12  C    0.116201
    13  N   -0.010323
    14  C   -0.439007
    15  H    0.178858
    16  H    0.170281
    17  H    0.170140
    18  C   -0.408100
    19  H    0.172225
    20  H    0.178701
    21  H    0.174308
    22  C   -0.203800
    23  C   -0.074456
    24  C    0.271327
    25  O   -0.468756
    26  C   -0.304398
    27  C   -0.137223
    28  C   -0.023844
    29  C   -0.145414
    30  C   -0.415555
    31  H    0.206607
    32  H    0.213767
    33  H    0.206133
    34  C   -0.160758
    35  H    0.190824
    36  H    0.183309
    37  H    0.190575
    38  H    0.189455
    39  H    0.159751
    40  N    0.496018
    41  O   -0.409566
    42  O   -0.409842
 Sum of Mulliken charges =  -0.00000

 Dipole moment (field-independent basis, Debye):
    X=             12.6968    Y=              1.7530    Z=             -5.3388  Tot=             13.8847
 Quadrupole moment (field-independent basis, Debye-Ang):
   XX=           -173.2262   YY=           -122.9891   ZZ=           -145.5633
   XY=             -6.3972   XZ=             -4.9772   YZ=             -5.5616

 Normal termination of Gaussian 16 at Mon Mar 11 23:46:26 2024.
