 Gaussian 16, Revision A.03,
 Gaussian 16:  ES64L-G16RevA.03 25-Dec-2016

 ----------------------------------------------------------------------
 #P CAM-B3LYP/def2TZVP opt freq=(noraman) scrf=(pcm,solvent=acetonitril
 e) EmpiricalDispersion=GD3BJ gfinput
 ----------------------------------------------------------------------

 -----
 TITLE
 -----
 Symbolic Z-matrix:
 Charge =  0 Multiplicity = 1

 SCF Done:  E(RCAM-B3LYP) =  -1069.79883850     A.U. after   17 cycles
 SCF Done:  E(RCAM-B3LYP) =  -1069.81808482     A.U. after   15 cycles
 SCF Done:  E(RCAM-B3LYP) =  -1069.81764207     A.U. after   16 cycles
 SCF Done:  E(RCAM-B3LYP) =  -1069.82380316     A.U. after   15 cycles
 SCF Done:  E(RCAM-B3LYP) =  -1069.83472574     A.U. after   17 cycles
 SCF Done:  E(RCAM-B3LYP) =  -1069.84111575     A.U. after   14 cycles
 SCF Done:  E(RCAM-B3LYP) =  -1069.84786145     A.U. after   15 cycles
 SCF Done:  E(RCAM-B3LYP) =  -1069.84985612     A.U. after   14 cycles
 SCF Done:  E(RCAM-B3LYP) =  -1069.85015925     A.U. after   14 cycles
 SCF Done:  E(RCAM-B3LYP) =  -1069.85119738     A.U. after   13 cycles
 SCF Done:  E(RCAM-B3LYP) =  -1069.85146056     A.U. after   13 cycles
 SCF Done:  E(RCAM-B3LYP) =  -1069.85163057     A.U. after   11 cycles
 SCF Done:  E(RCAM-B3LYP) =  -1069.85164920     A.U. after   11 cycles
 SCF Done:  E(RCAM-B3LYP) =  -1069.85165271     A.U. after   11 cycles
 SCF Done:  E(RCAM-B3LYP) =  -1069.85165388     A.U. after    9 cycles
 SCF Done:  E(RCAM-B3LYP) =  -1069.85165422     A.U. after    8 cycles
 SCF Done:  E(RCAM-B3LYP) =  -1069.85165434     A.U. after    8 cycles
 Optimization completed.
    -- Stationary point found.

 1\1\GINC-N004\FOpt\RCAM-B3LYP\def2TZVP\C19H18N2O3\ARTD\10-Mar-2024\0\\
 #P CAM-B3LYP/def2TZVP opt freq=(noraman) scrf=(pcm,solvent=acetonitril
 e) EmpiricalDispersion=GD3BJ gfinput\\TITLE\\0,1\C,-2.4039868036,2.297
 0238813,0.5954919054\C,-1.5782174864,1.218214431,0.3126773083\C,-0.262
 2904708,1.4094635377,-0.0885497214\C,0.1702345284,2.7125908966,-0.1904
 36997\C,-0.6362612617,3.8022777414,0.0817688028\C,-1.9381264532,3.6024
 798379,0.483901883\H,-3.4249140241,2.1193181377,0.9043297209\H,-1.9626
 264049,0.2116755711,0.4023262643\H,-2.5898209867,4.4370601203,0.705756

 Normal termination of Gaussian 16 at Sun Mar 10 09:07:22 2024.

 ----------------------------------------------------------------------
 #P Geom=AllCheck Guess=TCheck SCRF=Check GenChk RCAM-B3LYP/def2TZVP Fr
 eq
 ----------------------------------------------------------------------

 Structure from the checkpoint file:  "mc1_gs_b3lyp.chk"
 -----
 TITLE
 -----
 Charge =  0 Multiplicity = 1

                         Standard orientation:
 ---------------------------------------------------------------------
 Center     Atomic      Atomic             Coordinates (Angstroms)
 Number     Number       Type             X           Y           Z
 ---------------------------------------------------------------------
      1          6           0        5.034924   -1.670359    0.302449
      2          6           0        4.231876   -2.518402   -0.446982
      3          6           0        2.991739   -2.102803   -0.914485
      4          6           0        2.608387   -0.819645   -0.594881
      5          6           0        3.390097    0.040517    0.154118
      6          6           0        4.620460   -0.378846    0.608896
      7          1           0        5.995305   -2.020409    0.655130
      8          1           0        4.572458   -3.519980   -0.670082
      9          1           0        5.253262    0.274612    1.194561
     10          1           0        2.363809   -2.765884   -1.491293
     11          6           0        2.663400    1.350764    0.300982
     12          6           0        1.359187    1.041158   -0.406886
     13          7           0        1.408063   -0.148336   -0.944538
     14          6           0        2.415034    1.734661    1.761395
     15          1           0        1.864295    0.952023    2.276564
     16          1           0        1.839559    2.658032    1.816078
     17          1           0        3.370525    1.894575    2.259274
     18          6           0        3.403588    2.478686   -0.435488
     19          1           0        3.549164    2.239103   -1.488150
     20          1           0        4.380972    2.618121    0.023521
     21          1           0        2.856955    3.417147   -0.358431
     22          6           0        0.306162    1.994365   -0.558314
     23          6           0       -1.817790    0.726465    0.040003
     24          6           0       -1.292189   -0.294668    0.933152
     25          8           0       -0.104649   -0.312403    1.318168
     26          6           0       -2.232947   -1.294757    1.375695
     27          6           0       -3.533979   -1.293697    0.998149
     28          6           0       -4.014921   -0.268734    0.160103
     29          6           0       -3.167145    0.724739   -0.283972
     30          6           0        0.407183   -0.761569   -1.791150
     31          1           0       -0.235917    0.009424   -2.199221
     32          1           0       -0.188761   -1.465037   -1.212921
     33          1           0        0.909346   -1.285950   -2.599556
     34          6           0       -1.027963    1.824682   -0.450505
     35          1           0        0.656989    2.999362   -0.759546
     36          1           0       -1.614192    2.694857   -0.727619
     37          1           0       -3.566997    1.509297   -0.910448
     38          1           0       -4.213906   -2.061071    1.336722
     39          1           0       -1.848151   -2.065719    2.029856
     40          7           0       -5.385933   -0.248635   -0.221433
     41          8           0       -5.792916    0.655550   -0.943938
     42          8           0       -6.123714   -1.140528    0.184979
 ---------------------------------------------------------------------

 SCF Done:  E(RCAM-B3LYP) =  -1069.85165434     A.U. after    1 cycles

 The electronic state is 1-A.
 Alpha  occ. eigenvalues --  -19.22145 -19.22077 -19.15191 -14.62482 -14.49035
 Alpha  occ. eigenvalues --  -10.35063 -10.31306 -10.30605 -10.29472 -10.29365
 Alpha  occ. eigenvalues --  -10.28553 -10.28238 -10.27095 -10.27001 -10.26848
 Alpha  occ. eigenvalues --  -10.26480 -10.26453 -10.26359 -10.26229 -10.25998
 Alpha  occ. eigenvalues --  -10.25516 -10.25307 -10.24427 -10.24051  -1.31111
 Alpha  occ. eigenvalues --   -1.12798  -1.12575  -1.08842  -0.96826  -0.96206
 Alpha  occ. eigenvalues --   -0.94062  -0.90915  -0.86870  -0.85688  -0.84951
 Alpha  occ. eigenvalues --   -0.84520  -0.82101  -0.78507  -0.75840  -0.74283
 Alpha  occ. eigenvalues --   -0.72867  -0.71116  -0.68959  -0.67281  -0.66014
 Alpha  occ. eigenvalues --   -0.63878  -0.62322  -0.61163  -0.60035  -0.59734
 Alpha  occ. eigenvalues --   -0.58401  -0.58027  -0.55841  -0.55576  -0.54061
 Alpha  occ. eigenvalues --   -0.53441  -0.53118  -0.52628  -0.52163  -0.51442
 Alpha  occ. eigenvalues --   -0.50807  -0.50228  -0.49278  -0.47670  -0.47272
 Alpha  occ. eigenvalues --   -0.46868  -0.46008  -0.45651  -0.45390  -0.44201
 Alpha  occ. eigenvalues --   -0.43639  -0.42760  -0.42712  -0.41487  -0.40695
 Alpha  occ. eigenvalues --   -0.40231  -0.38562  -0.38171  -0.37681  -0.36054
 Alpha  occ. eigenvalues --   -0.33121  -0.32642  -0.30705  -0.29798  -0.25767
 Alpha virt. eigenvalues --   -0.05296  -0.03223   0.01339   0.01652   0.04200
 Alpha virt. eigenvalues --    0.06351   0.07086   0.08689   0.09250   0.09880
 Alpha virt. eigenvalues --    0.10159   0.10938   0.11564   0.12107   0.12649

 Mulliken charges:
               1
     1  C   -0.139683
     2  C   -0.140850
     3  C   -0.201870
     4  C    0.164638
     5  C   -0.097484
     6  C   -0.207063
     7  H    0.153795
     8  H    0.156493
     9  H    0.157758
    10  H    0.172525
    11  C    0.274631
    12  C    0.165878
    13  N    0.101609
    14  C   -0.393191
    15  H    0.149961
    16  H    0.142354
    17  H    0.142891
    18  C   -0.394146
    19  H    0.150553
    20  H    0.151684
    21  H    0.147973
    22  C   -0.338554
    23  C    0.014442
    24  C    0.205393
    25  O   -0.485996
    26  C   -0.220914
    27  C   -0.176808
    28  C    0.019791
    29  C   -0.168646
    30  C   -0.363135
    31  H    0.191429
    32  H    0.188232
    33  H    0.176395
    34  C   -0.109221
    35  H    0.158045
    36  H    0.154821
    37  H    0.165950
    38  H    0.162164
    39  H    0.122241
    40  N    0.417350
    41  O   -0.384959
    42  O   -0.386479
 Sum of Mulliken charges =  -0.00000

 Dipole moment (field-independent basis, Debye):
    X=             16.0557    Y=              2.2197    Z=             -3.8914  Tot=             16.6690
 Quadrupole moment (field-independent basis, Debye-Ang):
   XX=           -189.1092   YY=           -124.0117   ZZ=           -139.9421
   XY=             -2.6752   XZ=             -4.2582   YZ=              3.9619

  Exact polarizability: 578.189   5.673 340.869  28.604 -15.007 246.591
 Approx polarizability: 434.559   5.809 318.829  32.087 -15.567 240.369

                      1                      2                      3
                      A                      A                      A
 Frequencies --     28.0769                33.8260                46.4256
 Red. masses --      7.3035                 5.6024                 6.1983
 Frc consts  --      0.0034                 0.0038                 0.0079
 IR Inten    --      1.1311                 0.4374                 0.1039

                      4                      5                      6
                      A                      A                      A
 Frequencies --     70.3474                97.3694               109.3144
 Red. masses --      7.2170                 4.0722                 4.7450
 Frc consts  --      0.0210                 0.0227                 0.0334
 IR Inten    --      1.0740                 3.2747                10.1416

                      7                      8                      9
                      A                      A                      A
 Frequencies --    120.1380               143.8708               161.8643
 Red. masses --      4.7887                 6.1417                 4.0514
 Frc consts  --      0.0407                 0.0749                 0.0625
 IR Inten    --      1.8576                 4.1229                18.0492

                     10                     11                     12
                      A                      A                      A
 Frequencies --    172.4533               183.7863               201.9554
 Red. masses --      3.1400                 3.6071                 1.1955
 Frc consts  --      0.0550                 0.0718                 0.0287
 IR Inten    --      0.3576                26.5606                13.1347

                     13                     14                     15
                      A                      A                      A
 Frequencies --    224.9384               236.5863               250.9839
 Red. masses --      2.6023                 1.4151                 1.8745
 Frc consts  --      0.0776                 0.0467                 0.0696
 IR Inten    --      2.0821                 2.6353                 0.3385

                     16                     17                     18
                      A                      A                      A
 Frequencies --    265.9046               277.1239               299.2919
 Red. masses --      2.9735                 1.4392                 4.9101
 Frc consts  --      0.1239                 0.0651                 0.2591
 IR Inten    --     10.2304                 2.0180                13.5248

                     19                     20                     21
                      A                      A                      A
 Frequencies --    321.5687               329.0522               344.1378
 Red. masses --      2.5043                 2.5297                 3.7214
 Frc consts  --      0.1526                 0.1614                 0.2597
 IR Inten    --      1.4932                 1.5016                 0.1064

                     22                     23                     24
                      A                      A                      A
 Frequencies --    369.0498               384.5188               409.7696
 Red. masses --      7.1605                 4.9990                 3.7151
 Frc consts  --      0.5746                 0.4355                 0.3675
 IR Inten    --      1.6293                93.7646                79.9131

                     25                     26                     27
                      A                      A                      A
 Frequencies --    440.7299               466.0915               482.9599
 Red. masses --      6.0319                 3.5231                 5.4663
 Frc consts  --      0.6903                 0.4509                 0.7512
 IR Inten    --      7.3129                 5.8184                25.8198

                     28                     29                     30
                      A                      A                      A
 Frequencies --    503.7896               536.7088               548.3813
 Red. masses --      2.9939                 5.6430                 3.4089
 Frc consts  --      0.4477                 0.9577                 0.6040
 IR Inten    --     19.0133                22.5854                 0.8841

                     31                     32                     33
                      A                      A                      A
 Frequencies --    562.2163               565.8494               574.5652
 Red. masses --      5.0936                 4.9008                 4.0422
 Frc consts  --      0.9486                 0.9245                 0.7862
 IR Inten    --      5.6905                12.0853                 2.0311

                     34                     35                     36
                      A                      A                      A
 Frequencies --    595.2367               645.1892               653.2626
 Red. masses --      3.5651                 4.2912                 5.1718
 Frc consts  --      0.7442                 1.0524                 1.3004
 IR Inten    --      1.6281                 3.1588                19.6565

                     37                     38                     39
                      A                      A                      A
 Frequencies --    681.2612               699.5931               752.0505
 Red. masses --      3.6561                 4.3046                 2.5941
 Frc consts  --      0.9998                 1.2413                 0.8644
 IR Inten    --    147.4532                10.2460                27.2423

                     40                     41                     42
                      A                      A                      A
 Frequencies --    766.7582               779.1585               782.3475
 Red. masses --      3.0679                 2.4491                 1.6807
 Frc consts  --      1.0627                 0.8760                 0.6061
 IR Inten    --     41.4623                63.5944                36.9869

                     43                     44                     45
                      A                      A                      A
 Frequencies --    801.4722               802.8910               804.5318
 Red. masses --      3.6567                 3.5606                 5.3733
 Frc consts  --      1.3839                 1.3523                 2.0492
 IR Inten    --      1.3679                20.1418                23.8062

                     46                     47                     48
                      A                      A                      A
 Frequencies --    826.3414               862.5307               873.8305
 Red. masses --      2.4713                 6.2982                 2.5797
 Frc consts  --      0.9942                 2.7607                 1.1606
 IR Inten    --     79.1961                 9.3150                40.7371

                     49                     50                     51
                      A                      A                      A
 Frequencies --    905.8137               910.7983               964.4433
 Red. masses --      1.4746                 3.6427                 3.6985
 Frc consts  --      0.7129                 1.7804                 2.0269
 IR Inten    --      0.3700                34.2652                25.9982

                     52                     53                     54
                      A                      A                      A
 Frequencies --    972.4874               977.4288               978.6576
 Red. masses --      2.6116                 1.4749                 1.4894
 Frc consts  --      1.4552                 0.8302                 0.8405
 IR Inten    --    207.8992                23.6754                 5.0793

                     55                     56                     57
                      A                      A                      A
 Frequencies --    983.5933              1018.8231              1021.1584
 Red. masses --      1.3738                 1.3217                 1.5106
 Frc consts  --      0.7831                 0.8083                 0.9281
 IR Inten    --      5.5698                 4.2829               234.7055

                     58                     59                     60
                      A                      A                      A
 Frequencies --   1023.9467              1045.2804              1055.9458
 Red. masses --      1.3256                 1.3724                 2.4881
 Frc consts  --      0.8189                 0.8834                 1.6345
 IR Inten    --      0.9124                 2.6999                50.4900

                     61                     62                     63
                      A                      A                      A
 Frequencies --   1068.0572              1109.3752              1116.3351
 Red. masses --      2.3280                 2.5359                 1.8143
 Frc consts  --      1.5647                 1.8388                 1.3321
 IR Inten    --     32.6976                38.8373               612.1059

                     64                     65                     66
                      A                      A                      A
 Frequencies --   1150.3398              1155.2497              1160.8291
 Red. masses --      1.4347                 1.4904                 1.4329
 Frc consts  --      1.1186                 1.1719                 1.1377
 IR Inten    --     13.7365                 3.3613                18.0903

                     67                     68                     69
                      A                      A                      A
 Frequencies --   1167.7478              1181.9990              1185.0372
 Red. masses --      1.6699                 3.4094                 1.5081
 Frc consts  --      1.3416                 2.8064                 1.2478
 IR Inten    --     79.9430                15.1969                70.0928

                     70                     71                     72
                      A                      A                      A
 Frequencies --   1190.2387              1219.6140              1264.5640
 Red. masses --      1.9928                 2.8798                 2.3340
 Frc consts  --      1.6634                 2.5238                 2.1991
 IR Inten    --    160.1954                44.5823               128.7265

                     73                     74                     75
                      A                      A                      A
 Frequencies --   1270.6765              1282.0587              1303.6338
 Red. masses --      1.6898                 1.6326                 3.3433
 Frc consts  --      1.6075                 1.5811                 3.3476
 IR Inten    --    623.2141                63.9310                26.4574

                     76                     77                     78
                      A                      A                      A
 Frequencies --   1337.4434              1340.2484              1359.5817
 Red. masses --      2.1520                 4.6123                 2.7879
 Frc consts  --      2.2680                 4.8813                 3.0363
 IR Inten    --     40.7781              3321.2505                 1.8521

                     79                     80                     81
                      A                      A                      A
 Frequencies --   1388.1620              1393.0178              1410.3974
 Red. masses --      4.0240                 2.4773                 1.2525
 Frc consts  --      4.5687                 2.8323                 1.4679
 IR Inten    --     19.9852                37.3733                11.1264

                     82                     83                     84
                      A                      A                      A
 Frequencies --   1417.0487              1433.1665              1452.0102
 Red. masses --      2.6699                 1.2203                 1.2580
 Frc consts  --      3.1588                 1.4768                 1.5626
 IR Inten    --     35.2023                 4.6271                45.9191

                     85                     86                     87
                      A                      A                      A
 Frequencies --   1478.9081              1482.8843              1487.9947
 Red. masses --      1.3891                 1.4941                 1.0567
 Frc consts  --      1.7901                 1.9357                 1.3785
 IR Inten    --     27.2799                74.0167                20.9358

                     88                     89                     90
                      A                      A                      A
 Frequencies --   1489.6090              1495.9469              1499.1250
 Red. masses --      1.0733                 1.1899                 1.1035
 Frc consts  --      1.4032                 1.5688                 1.4612
 IR Inten    --     23.2424                77.0626                 0.6390

                     91                     92                     93
                      A                      A                      A
 Frequencies --   1506.8107              1510.5571              1521.9713
 Red. masses --      1.1305                 2.7498                 3.0494
 Frc consts  --      1.5123                 3.6967                 4.1617
 IR Inten    --     38.4178               161.6532               265.7698

                     94                     95                     96
                      A                      A                      A
 Frequencies --   1524.9406              1540.1655              1569.8663
 Red. masses --      2.9160                 2.8808                 7.6574
 Frc consts  --      3.9952                 4.0262                11.1188
 IR Inten    --     49.1449                98.7588               450.6876

                     97                     98                     99
                      A                      A                      A
 Frequencies --   1604.7773              1643.8657              1665.7141
 Red. masses --      7.6586                 6.9877                 6.5490
 Frc consts  --     11.6206                11.1255                10.7060
 IR Inten    --    326.2920               652.3250               177.3332

                    100                    101                    102
                      A                      A                      A
 Frequencies --   1681.0676              1683.9411              1702.6981
 Red. masses --      7.0806                 6.7134                 7.7007
 Frc consts  --     11.7893                11.2162                13.1539
 IR Inten    --    670.9841               391.9882                74.2144

                    103                    104                    105
                      A                      A                      A
 Frequencies --   3068.4796              3072.2960              3093.4196
 Red. masses --      1.0341                 1.0353                 1.0347
 Frc consts  --      5.7365                 5.7577                 5.8335
 IR Inten    --     20.6097                37.4988                 9.9687

                    106                    107                    108
                      A                      A                      A
 Frequencies --   3141.0161              3144.4187              3147.0868
 Red. masses --      1.1037                 1.1043                 1.1035
 Frc consts  --      6.4158                 6.4334                 6.4394
 IR Inten    --     16.4394                22.8592                35.0738

                    109                    110                    111
                      A                      A                      A
 Frequencies --   3163.9461              3167.0648              3167.7314
 Red. masses --      1.0860                 1.1046                 1.1032
 Frc consts  --      6.4055                 6.5280                 6.5226
 IR Inten    --     11.2660                 5.2466                 7.8939

                    112                    113                    114
                      A                      A                      A
 Frequencies --   3189.4133              3202.6329              3203.9269
 Red. masses --      1.0890                 1.0880                 1.1041
 Frc consts  --      6.5271                 6.5747                 6.6778
 IR Inten    --      3.9225                 0.8038                 1.1664

                    115                    116                    117
                      A                      A                      A
 Frequencies --   3206.1160              3211.8844              3222.3382
 Red. masses --      1.0900                 1.0911                 1.0950
 Frc consts  --      6.6014                 6.6321                 6.6987
 IR Inten    --      9.0128                 7.7482                16.5083

                    118                    119                    120
                      A                      A                      A
 Frequencies --   3227.6515              3233.5685              3239.0890
 Red. masses --      1.0909                 1.0961                 1.0939
 Frc consts  --      6.6958                 6.7524                 6.7619
 IR Inten    --      0.5055                 3.2685                 2.8585

 - Thermochemistry -
 -------------------
 Temperature   298.150 Kelvin.  Pressure   1.00000 Atm.
 Atom     1 has atomic number  6 and mass  12.00000

 Molecular mass:   322.13174 amu.
 Principal axes and moments of inertia in atomic units:
                           1         2         3
     Eigenvalues --  3004.38913********************
           X            0.99999   0.00411   0.00160
           Y           -0.00413   0.99989   0.01426
           Z           -0.00154  -0.01427   0.99990
 This molecule is an asymmetric top.
 Rotational symmetry number  1.
 Warning -- assumption of classical behavior for rotation
           may cause significant error
 Rotational temperatures (Kelvin)      0.02883     0.00602     0.00556
 Rotational constants (GHZ):           0.60070     0.12549     0.11587
 Zero-point vibrational energy     888216.7 (Joules/Mol)
                                  212.28888 (Kcal/Mol)
 Warning -- explicit consideration of  34 degrees of freedom as
           vibrations may cause significant error
 Vibrational temperatures:     40.40    48.67    66.80   101.21   140.09
          (Kelvin)            157.28   172.85   207.00   232.89   248.12
                              264.43   290.57   323.64   340.39   361.11
                              382.58   398.72   430.61   462.67   473.43
                              495.14   530.98   553.24   589.57   634.11
                              670.60   694.87   724.84   772.20   789.00
                              808.90   814.13   826.67   856.41   928.28
                              939.90   980.18  1006.56  1082.03  1103.19
                             1121.04  1125.62  1153.14  1155.18  1157.54
                             1188.92  1240.99  1257.25  1303.26  1310.44
                             1387.62  1399.19  1406.30  1408.07  1415.17
                             1465.86  1469.22  1473.23  1503.93  1519.27
                             1536.70  1596.14  1606.16  1655.08  1662.15
                             1670.17  1680.13  1700.63  1705.00  1712.49
                             1754.75  1819.43  1828.22  1844.60  1875.64
                             1924.28  1928.32  1956.13  1997.26  2004.24
                             2029.25  2038.82  2062.01  2089.12  2127.82
                             2133.54  2140.89  2143.22  2152.33  2156.91
                             2167.96  2173.35  2189.78  2194.05  2215.95
                             2258.69  2308.92  2365.16  2396.59  2418.68
                             2422.82  2449.80  4414.86  4420.35  4450.74
                             4519.22  4524.12  4527.96  4552.21  4556.70
                             4557.66  4588.85  4607.87  4609.74  4612.89
                             4621.19  4636.23  4643.87  4652.38  4660.33

 Zero-point correction=                           0.338304 (Hartree/Particle)
 Thermal correction to Energy=                    0.358894
 Thermal correction to Enthalpy=                  0.359838
 Thermal correction to Gibbs Free Energy=         0.288930
 Sum of electronic and zero-point Energies=          -1069.513350
 Sum of electronic and thermal Energies=             -1069.492760
 Sum of electronic and thermal Enthalpies=           -1069.491816
 Sum of electronic and thermal Free Energies=        -1069.562724

                     E (Thermal)             CV                S
                      KCal/Mol        Cal/Mol-Kelvin    Cal/Mol-Kelvin
 Total                  225.209             80.845            149.239
 Electronic               0.000              0.000              0.000
 Translational            0.889              2.981             43.205
 Rotational               0.889              2.981             34.864
 Vibrational            223.432             74.883             71.170
 Vibration     1          0.593              1.984              5.961
 Vibration     2          0.594              1.983              5.591
 Vibration     3          0.595              1.979              4.964
 Vibration     4          0.598              1.968              4.144
 Vibration     5          0.603              1.951              3.506
 Vibration     6          0.606              1.942              3.281
 Vibration     7          0.609              1.932              3.098
 Vibration     8          0.616              1.909              2.752
 Vibration     9          0.622              1.889              2.528
 Vibration    10          0.626              1.876              2.409
 Vibration    11          0.631              1.862              2.290
 Vibration    12          0.639              1.837              2.115
 Vibration    13          0.650              1.803              1.919
 Vibration    14          0.655              1.785              1.828
 Vibration    15          0.663              1.761              1.724
 Vibration    16          0.672              1.736              1.623
 Vibration    17          0.678              1.716              1.551
 Vibration    18          0.692              1.675              1.421
 Vibration    19          0.707              1.632              1.302
 Vibration    20          0.712              1.617              1.265
 Vibration    21          0.723              1.587              1.193
 Vibration    22          0.741              1.536              1.084
 Vibration    23          0.753              1.503              1.021
 Vibration    24          0.774              1.449              0.927
 Vibration    25          0.801              1.381              0.824
 Vibration    26          0.823              1.325              0.749
 Vibration    27          0.839              1.288              0.702
 Vibration    28          0.859              1.242              0.649
 Vibration    29          0.892              1.169              0.572
 Vibration    30          0.904              1.143              0.548
 Vibration    31          0.918              1.113              0.519
 Vibration    32          0.922              1.105              0.512
 Vibration    33          0.931              1.086              0.496
 Vibration    34          0.953              1.042              0.458

                           ! Non-Optimized Parameters !

 1\1\GINC-N004\Freq\RCAM-B3LYP\def2TZVP\C19H18N2O3\ARTD\10-Mar-2024\0\\
 #P Geom=AllCheck Guess=TCheck SCRF=Check GenChk RCAM-B3LYP/def2TZVP Fr
 eq\\TITLE\\0,1\C,-2.4039868036,2.2970238813,0.5954919054\C,-1.57821748
 64,1.218214431,0.3126773083\C,-0.2622904708,1.4094635377,-0.0885497214
 \C,0.1702345284,2.7125908966,-0.190436997\C,-0.6362612617,3.8022777414
 ,0.0817688028\C,-1.9381264532,3.6024798379,0.483901883\H,-3.4249140241
 ,2.1193181377,0.9043297209\H,-1.9626264049,0.2116755711,0.4023262643\H
 ,-2.5898209867,4.4370601203,0.7057568996\H,0.3777185629,0.569595906,-0

 Normal termination of Gaussian 16 at Sun Mar 10 11:24:51 2024.
