 Gaussian 16, Revision A.03,
 Gaussian 16:  ES64L-G16RevA.03 25-Dec-2016

 ----------------------------------------------------------------------
 #P M062X/def2TZVP opt freq=(noraman) scrf=(pcm,solvent=acetonitrile) g
 finput integral=ultrafine
 ----------------------------------------------------------------------

 -----
 TITLE
 -----
 Symbolic Z-matrix:
 Charge =  0 Multiplicity = 1

 SCF Done:  E(RM062X) =  -1069.84933804     A.U. after   15 cycles
 SCF Done:  E(RM062X) =  -1069.86763838     A.U. after   15 cycles
 SCF Done:  E(RM062X) =  -1069.86393504     A.U. after   16 cycles
 SCF Done:  E(RM062X) =  -1069.87062834     A.U. after   15 cycles
 SCF Done:  E(RM062X) =  -1069.87933954     A.U. after   15 cycles
 SCF Done:  E(RM062X) =  -1069.88610465     A.U. after   14 cycles
 SCF Done:  E(RM062X) =  -1069.89491634     A.U. after   14 cycles
 SCF Done:  E(RM062X) =  -1069.89188635     A.U. after   15 cycles
 SCF Done:  E(RM062X) =  -1069.89610722     A.U. after   14 cycles
 SCF Done:  E(RM062X) =  -1069.90074854     A.U. after   14 cycles
 SCF Done:  E(RM062X) =  -1069.90233957     A.U. after   13 cycles
 SCF Done:  E(RM062X) =  -1069.90248247     A.U. after   13 cycles
 SCF Done:  E(RM062X) =  -1069.90294440     A.U. after   12 cycles
 SCF Done:  E(RM062X) =  -1069.90305218     A.U. after   12 cycles
 SCF Done:  E(RM062X) =  -1069.90307663     A.U. after   11 cycles
 SCF Done:  E(RM062X) =  -1069.90308012     A.U. after   10 cycles
 SCF Done:  E(RM062X) =  -1069.90308134     A.U. after   10 cycles
 SCF Done:  E(RM062X) =  -1069.90308154     A.U. after    8 cycles
 SCF Done:  E(RM062X) =  -1069.90308163     A.U. after    6 cycles
 Optimization completed.
    -- Stationary point found.
 Normal termination of Gaussian 16 at Sun Mar 10 07:49:00 2024.

 --------------------------------------------------------------------
 #P Geom=AllCheck Guess=TCheck SCRF=Check GenChk RM062X/def2TZVP Freq
 --------------------------------------------------------------------

 Structure from the checkpoint file:  "mc1_gs_m062x.chk"
 -----
 TITLE
 -----
 Charge =  0 Multiplicity = 1

                         Standard orientation:
 ---------------------------------------------------------------------
 Center     Atomic      Atomic             Coordinates (Angstroms)
 Number     Number       Type             X           Y           Z
 ---------------------------------------------------------------------
      1          6           0        5.024691   -1.694826    0.272472
      2          6           0        4.192814   -2.546226   -0.447545
      3          6           0        2.944453   -2.123562   -0.896217
      4          6           0        2.584999   -0.827622   -0.585457
      5          6           0        3.393974    0.036215    0.136287
      6          6           0        4.632620   -0.390725    0.570741
      7          1           0        5.988965   -2.052228    0.608068
      8          1           0        4.517332   -3.555363   -0.662484
      9          1           0        5.284882    0.266111    1.132797
     10          1           0        2.294194   -2.786801   -1.449541
     11          6           0        2.683607    1.354961    0.282248
     12          6           0        1.367122    1.054896   -0.405108
     13          7           0        1.386428   -0.145097   -0.923044
     14          6           0        2.451288    1.745002    1.746771
     15          1           0        1.901753    0.964001    2.268450
     16          1           0        1.881013    2.673084    1.799592
     17          1           0        3.415863    1.900369    2.230574
     18          6           0        3.428161    2.475237   -0.464972
     19          1           0        3.552474    2.232894   -1.520412
     20          1           0        4.414228    2.596733   -0.016888
     21          1           0        2.893452    3.420441   -0.374228
     22          6           0        0.316379    2.018922   -0.536318
     23          6           0       -1.810252    0.739637    0.052646
     24          6           0       -1.281482   -0.292409    0.938308
     25          8           0       -0.098781   -0.305807    1.337080
     26          6           0       -2.221694   -1.311150    1.356295
     27          6           0       -3.525216   -1.308218    0.974968
     28          6           0       -4.006521   -0.265203    0.155242
     29          6           0       -3.164121    0.741107   -0.273275
     30          6           0        0.360181   -0.767129   -1.736661
     31          1           0       -0.290493    0.002292   -2.139005
     32          1           0       -0.219745   -1.460723   -1.127244
     33          1           0        0.845120   -1.305184   -2.547967
     34          6           0       -1.021918    1.848919   -0.423339
     35          1           0        0.671599    3.026062   -0.725120
     36          1           0       -1.609312    2.724557   -0.685383
     37          1           0       -3.566392    1.535873   -0.887894
     38          1           0       -4.204762   -2.084744    1.296647
     39          1           0       -1.834724   -2.092366    1.997913
     40          7           0       -5.385044   -0.242674   -0.227552
     41          8           0       -5.791945    0.673011   -0.929087
     42          8           0       -6.114229   -1.144400    0.161230
 ---------------------------------------------------------------------

 SCF Done:  E(RM062X) =  -1069.90308163     A.U. after    2 cycles

 The electronic state is 1-A.
 Alpha  occ. eigenvalues --  -19.65284 -19.65197 -19.58359 -14.99113 -14.85246
 Alpha  occ. eigenvalues --  -10.64393 -10.60887 -10.60220 -10.58963 -10.58661
 Alpha  occ. eigenvalues --  -10.58145 -10.57719 -10.56584 -10.56574 -10.56438
 Alpha  occ. eigenvalues --  -10.56085 -10.56022 -10.55848 -10.55767 -10.55536
 Alpha  occ. eigenvalues --  -10.55084 -10.54695 -10.53894 -10.53626  -1.36037
 Alpha  occ. eigenvalues --   -1.16981  -1.15409  -1.12924  -0.98713  -0.98168
 Alpha  occ. eigenvalues --   -0.95795  -0.92553  -0.88382  -0.87187  -0.86404
 Alpha  occ. eigenvalues --   -0.85890  -0.83359  -0.79675  -0.76908  -0.75595
 Alpha  occ. eigenvalues --   -0.73703  -0.71778  -0.69565  -0.67882  -0.66604
 Alpha  occ. eigenvalues --   -0.65362  -0.62646  -0.62289  -0.60680  -0.60141
 Alpha  occ. eigenvalues --   -0.59022  -0.58234  -0.55938  -0.55707  -0.54493
 Alpha  occ. eigenvalues --   -0.53553  -0.52967  -0.52490  -0.52102  -0.51390
 Alpha  occ. eigenvalues --   -0.50648  -0.50152  -0.49145  -0.47639  -0.47188
 Alpha  occ. eigenvalues --   -0.46735  -0.46033  -0.45670  -0.45092  -0.43748
 Alpha  occ. eigenvalues --   -0.43515  -0.42576  -0.42202  -0.41247  -0.40470
 Alpha  occ. eigenvalues --   -0.40187  -0.39413  -0.38297  -0.37831  -0.37631
 Alpha  occ. eigenvalues --   -0.33062  -0.32435  -0.31128  -0.29710  -0.25473
 Alpha virt. eigenvalues --   -0.06449  -0.03810   0.00064   0.00365   0.02931
 Alpha virt. eigenvalues --    0.05293   0.06154   0.07748   0.08423   0.08908
 Alpha virt. eigenvalues --    0.09243   0.10077   0.10653   0.11248   0.11617

 Mulliken charges:
               1
     1  C   -0.152762
     2  C   -0.167673
     3  C   -0.190976
     4  C    0.147927
     5  C   -0.065251
     6  C   -0.198398
     7  H    0.170888
     8  H    0.172652
     9  H    0.178503
    10  H    0.197864
    11  C    0.120222
    12  C    0.091561
    13  N    0.077999
    14  C   -0.433800
    15  H    0.175870
    16  H    0.172612
    17  H    0.170862
    18  C   -0.422949
    19  H    0.176814
    20  H    0.176819
    21  H    0.172098
    22  C   -0.265204
    23  C   -0.011515
    24  C    0.193660
    25  O   -0.494893
    26  C   -0.240759
    27  C   -0.162366
    28  C   -0.047505
    29  C   -0.129146
    30  C   -0.417342
    31  H    0.206616
    32  H    0.221655
    33  H    0.190908
    34  C   -0.152814
    35  H    0.181651
    36  H    0.167179
    37  H    0.193532
    38  H    0.186484
    39  H    0.152664
    40  N    0.489373
    41  O   -0.417405
    42  O   -0.415657
 Sum of Mulliken charges =  -0.00000

 Dipole moment (field-independent basis, Debye):
    X=             16.0045    Y=              2.0855    Z=             -3.8621  Tot=             16.5955
 Quadrupole moment (field-independent basis, Debye-Ang):
   XX=           -185.7746   YY=           -122.4188   ZZ=           -140.1807
   XY=             -2.3841   XZ=             -3.8905   YZ=              3.7413

  Exact polarizability: 577.382   6.155 346.844  26.988 -15.089 246.502
 Approx polarizability: 453.765   6.658 333.750  32.028 -15.706 244.896

                      1                      2                      3
                      A                      A                      A
 Frequencies --     29.8153                37.1509                49.8108
 Red. masses --      7.2265                 5.9359                 6.3938
 Frc consts  --      0.0038                 0.0048                 0.0093
 IR Inten    --      1.1425                 0.4052                 0.1620

                      4                      5                      6
                      A                      A                      A
 Frequencies --     72.7639                96.0863               109.1508
 Red. masses --      6.4613                 3.8847                 5.0142
 Frc consts  --      0.0202                 0.0211                 0.0352
 IR Inten    --      0.6804                 2.5401                11.2524

                      7                      8                      9
                      A                      A                      A
 Frequencies --    121.0714               144.4695               162.1444
 Red. masses --      4.7005                 5.9934                 3.9934
 Frc consts  --      0.0406                 0.0737                 0.0619
 IR Inten    --      1.6387                 3.8439                10.6374

                     10                     11                     12
                      A                      A                      A
 Frequencies --    178.5270               190.3698               221.6233
 Red. masses --      2.9896                 2.9545                 1.7024
 Frc consts  --      0.0561                 0.0631                 0.0493
 IR Inten    --      0.9268                15.9678                31.0082

                     13                     14                     15
                      A                      A                      A
 Frequencies --    226.4373               241.1789               253.7674
 Red. masses --      2.6649                 1.3785                 1.7716
 Frc consts  --      0.0805                 0.0472                 0.0672
 IR Inten    --      1.4666                 2.2050                 0.8891

                     16                     17                     18
                      A                      A                      A
 Frequencies --    269.9319               285.4340               298.8087
 Red. masses --      3.4748                 1.2362                 5.0679
 Frc consts  --      0.1492                 0.0593                 0.2666
 IR Inten    --     12.7788                 1.1925                10.6620

                     19                     20                     21
                      A                      A                      A
 Frequencies --    325.1508               334.6774               340.2902
 Red. masses --      2.5496                 2.3295                 3.6828
 Frc consts  --      0.1588                 0.1537                 0.2513
 IR Inten    --      1.9020                 0.5970                 0.1416

                     22                     23                     24
                      A                      A                      A
 Frequencies --    367.5099               383.1843               406.2933
 Red. masses --      7.0069                 4.8831                 3.6599
 Frc consts  --      0.5576                 0.4224                 0.3560
 IR Inten    --      1.7416                81.7574                77.4185

                     25                     26                     27
                      A                      A                      A
 Frequencies --    439.2443               460.3054               478.4160
 Red. masses --      6.2063                 3.6557                 5.2914
 Frc consts  --      0.7055                 0.4564                 0.7136
 IR Inten    --      7.0048                 6.8453                23.5643

                     28                     29                     30
                      A                      A                      A
 Frequencies --    500.0656               532.2960               542.5510
 Red. masses --      3.0338                 5.4750                 3.4315
 Frc consts  --      0.4470                 0.9140                 0.5951
 IR Inten    --     19.4981                21.1090                 1.4354

                     31                     32                     33
                      A                      A                      A
 Frequencies --    556.9328               561.1754               570.1431
 Red. masses --      5.1664                 5.3254                 4.0325
 Frc consts  --      0.9442                 0.9881                 0.7723
 IR Inten    --      8.3012                11.2566                 1.7768

                     34                     35                     36
                      A                      A                      A
 Frequencies --    589.6541               638.1008               647.8029
 Red. masses --      3.5782                 4.1569                 5.9137
 Frc consts  --      0.7330                 0.9972                 1.4622
 IR Inten    --      2.1452                 1.6501                19.7032

                     37                     38                     39
                      A                      A                      A
 Frequencies --    680.1138               693.9625               749.5348
 Red. masses --      4.0700                 3.8012                 2.6199
 Frc consts  --      1.1092                 1.0785                 0.8672
 IR Inten    --    135.4686                27.1170                25.6120

                     40                     41                     42
                      A                      A                      A
 Frequencies --    763.2887               777.2192               780.5232
 Red. masses --      2.9569                 2.3333                 1.8517
 Frc consts  --      1.0150                 0.8304                 0.6646
 IR Inten    --     41.9176                54.3061                28.9920

                     43                     44                     45
                      A                      A                      A
 Frequencies --    793.5872               798.4598               805.9623
 Red. masses --      3.4889                 3.3187                 7.5757
 Frc consts  --      1.2946                 1.2466                 2.8993
 IR Inten    --      8.6297                13.9418                35.8694

                     46                     47                     48
                      A                      A                      A
 Frequencies --    822.5423               859.6739               866.8663
 Red. masses --      2.3241                 6.4541                 2.4800
 Frc consts  --      0.9265                 2.8103                 1.0980
 IR Inten    --     76.7626                13.1581                38.0974

                     49                     50                     51
                      A                      A                      A
 Frequencies --    901.8865               907.8231               959.4267
 Red. masses --      1.4316                 3.6505                 3.8132
 Frc consts  --      0.6861                 1.7726                 2.0681
 IR Inten    --      0.1331                21.9123                48.3842

                     52                     53                     54
                      A                      A                      A
 Frequencies --    965.9899               968.0128               973.6921
 Red. masses --      2.2420                 1.6851                 1.4262
 Frc consts  --      1.2326                 0.9303                 0.7967
 IR Inten    --    207.3737                36.7629                 1.4218

                     55                     56                     57
                      A                      A                      A
 Frequencies --    979.6836              1012.5233              1014.8415
 Red. masses --      1.3737                 1.3236                 1.4761
 Frc consts  --      0.7768                 0.7995                 0.8957
 IR Inten    --      4.0318                33.3848               198.2067

                     58                     59                     60
                      A                      A                      A
 Frequencies --   1027.8461              1037.0657              1050.5036
 Red. masses --      1.3286                 1.3428                 2.4440
 Frc consts  --      0.8270                 0.8509                 1.5891
 IR Inten    --      0.0920                 0.6324                47.5485

                     61                     62                     63
                      A                      A                      A
 Frequencies --   1063.5367              1095.6256              1113.5104
 Red. masses --      2.3011                 2.4716                 1.7758
 Frc consts  --      1.5335                 1.7480                 1.2973
 IR Inten    --     37.8537                 3.0041               579.3504

                     64                     65                     66
                      A                      A                      A
 Frequencies --   1142.4913              1148.4608              1153.7315
 Red. masses --      1.4462                 1.4735                 1.4225
 Frc consts  --      1.1122                 1.1451                 1.1156
 IR Inten    --     14.9593                 2.9513                18.4802

                     67                     68                     69
                      A                      A                      A
 Frequencies --   1161.9312              1174.7772              1175.0524
 Red. masses --      1.6322                 3.4384                 1.5649
 Frc consts  --      1.2984                 2.7958                 1.2731
 IR Inten    --    126.3997                34.8398                90.0380

                     70                     71                     72
                      A                      A                      A
 Frequencies --   1181.3232              1212.9403              1258.5059
 Red. masses --      1.8705                 2.9010                 2.3160
 Frc consts  --      1.5379                 2.5146                 2.1612
 IR Inten    --    168.9099                39.2840                56.1870

                     73                     74                     75
                      A                      A                      A
 Frequencies --   1263.0365              1273.8822              1294.6810
 Red. masses --      1.5667                 1.5901                 3.2130
 Frc consts  --      1.4726                 1.5203                 3.1731
 IR Inten    --    422.0826                65.0730                18.1223

                     76                     77                     78
                      A                      A                      A
 Frequencies --   1327.2665              1346.8723              1352.7479
 Red. masses --      1.9933                 3.1571                 5.3261
 Frc consts  --      2.0689                 3.3744                 5.7424
 IR Inten    --      7.8973               183.1209              3247.2852

                     79                     80                     81
                      A                      A                      A
 Frequencies --   1381.3712              1390.4647              1393.3917
 Red. masses --      3.6740                 2.5165                 1.2119
 Frc consts  --      4.1306                 2.8666                 1.3864
 IR Inten    --     29.3564               141.9359                 6.2813

                     82                     83                     84
                      A                      A                      A
 Frequencies --   1409.7140              1418.0987              1437.7431
 Red. masses --      3.0359                 1.2207                 1.2470
 Frc consts  --      3.5546                 1.4463                 1.5187
 IR Inten    --     97.3603                 3.3351                43.9077

                     85                     86                     87
                      A                      A                      A
 Frequencies --   1471.8759              1475.8258              1479.2540
 Red. masses --      1.2691                 1.5351                 1.0697
 Frc consts  --      1.6199                 1.9700                 1.3790
 IR Inten    --     12.2351                40.3146                21.0456

                     88                     89                     90
                      A                      A                      A
 Frequencies --   1482.0078              1490.2425              1492.6184
 Red. masses --      1.1559                 1.1412                 1.1064
 Frc consts  --      1.4958                 1.4933                 1.4523
 IR Inten    --     27.2563                75.3136                 6.1245

                     91                     92                     93
                      A                      A                      A
 Frequencies --   1498.9562              1505.2290              1511.3111
 Red. masses --      1.1661                 2.5412                 2.3201
 Frc consts  --      1.5437                 3.3923                 3.1222
 IR Inten    --     41.7100               165.1003                75.9451

                     94                     95                     96
                      A                      A                      A
 Frequencies --   1527.2268              1531.0540              1578.0064
 Red. masses --      3.9599                 3.4599                 9.0976
 Frc consts  --      5.4418                 4.7785                13.3473
 IR Inten    --    218.7741                65.6274               491.9846

                     97                     98                     99
                      A                      A                      A
 Frequencies --   1608.8336              1644.9596              1663.4245
 Red. masses --      8.4181                 7.2946                 6.7953
 Frc consts  --     12.8377                11.6296                11.0781
 IR Inten    --    414.0025               591.1958               133.4462

                    100                    101                    102
                      A                      A                      A
 Frequencies --   1675.8214              1678.5385              1694.9568
 Red. masses --      7.3117                 6.9141                 7.8366
 Frc consts  --     12.0982                11.4775                13.2647
 IR Inten    --    350.8862               707.6378               114.9774

                    103                    104                    105
                      A                      A                      A
 Frequencies --   3069.4921              3070.9783              3088.6416
 Red. masses --      1.0334                 1.0343                 1.0355
 Frc consts  --      5.7366                 5.7474                 5.8204
 IR Inten    --     18.0312                35.7630                 7.3455

                    106                    107                    108
                      A                      A                      A
 Frequencies --   3147.2991              3152.3707              3153.2492
 Red. masses --      1.1036                 1.1036                 1.1042
 Frc consts  --      6.4406                 6.4615                 6.4685
 IR Inten    --     14.2990                18.6514                23.2607

                    109                    110                    111
                      A                      A                      A
 Frequencies --   3165.5672              3166.8915              3170.8577
 Red. masses --      1.0863                 1.1027                 1.1035
 Frc consts  --      6.4134                 6.5157                 6.5367
 IR Inten    --     10.5205                 4.0967                 6.0843

                    112                    113                    114
                      A                      A                      A
 Frequencies --   3192.3026              3207.7970              3208.7477
 Red. masses --      1.0890                 1.1040                 1.0884
 Frc consts  --      6.5387                 6.6932                 6.6027
 IR Inten    --      2.9345                 1.3345                 1.4081

                    115                    116                    117
                      A                      A                      A
 Frequencies --   3213.8142              3219.8483              3223.5958
 Red. masses --      1.0897                 1.0909                 1.0910
 Frc consts  --      6.6311                 6.6634                 6.6794
 IR Inten    --      5.7899                 4.5682                 0.9234

                    118                    119                    120
                      A                      A                      A
 Frequencies --   3229.6458              3239.9812              3241.9169
 Red. masses --      1.0937                 1.0968                 1.0943
 Frc consts  --      6.7217                 6.7838                 6.7762
 IR Inten    --     10.1414                 2.8389                 2.5317

 - Thermochemistry -
 -------------------
 Temperature   298.150 Kelvin.  Pressure   1.00000 Atm.
 Atom     1 has atomic number  6 and mass  12.00000

 Molecular mass:   322.13174 amu.
 Principal axes and moments of inertia in atomic units:
                           1         2         3
     Eigenvalues --  3012.86735********************
           X            0.99999   0.00430   0.00158
           Y           -0.00432   0.99991   0.01304
           Z           -0.00152  -0.01304   0.99991
 This molecule is an asymmetric top.
 Rotational symmetry number  1.
 Warning -- assumption of classical behavior for rotation
           may cause significant error
 Rotational temperatures (Kelvin)      0.02875     0.00605     0.00556
 Rotational constants (GHZ):           0.59901     0.12600     0.11584
 Zero-point vibrational energy     886418.9 (Joules/Mol)
                                  211.85919 (Kcal/Mol)
 Warning -- explicit consideration of  34 degrees of freedom as
           vibrations may cause significant error
 Vibrational temperatures:     42.90    53.45    71.67   104.69   138.25
          (Kelvin)            157.04   174.19   207.86   233.29   256.86
                              273.90   318.87   325.79   347.00   365.11
                              388.37   410.68   429.92   467.82   481.53
                              489.60   528.76   551.32   584.57   631.97
                              662.28   688.33   719.48   765.86   780.61
                              801.30   807.41   820.31   848.38   918.08
                              932.04   978.53   998.46  1078.41  1098.20
                             1118.25  1123.00  1141.79  1148.81  1159.60
                             1183.45  1236.88  1247.23  1297.61  1306.16
                             1380.40  1389.84  1392.75  1400.93  1409.55
                             1456.80  1460.13  1478.84  1492.11  1511.44
                             1530.19  1576.36  1602.09  1643.79  1652.38
                             1659.96  1671.76  1690.24  1690.64  1699.66
                             1745.15  1810.71  1817.23  1832.83  1862.76
                             1909.64  1937.85  1946.30  1987.49  2000.57
                             2004.78  2028.26  2040.33  2068.59  2117.70
                             2123.38  2128.32  2132.28  2144.13  2147.54
                             2156.66  2165.69  2174.44  2197.34  2202.85
                             2270.40  2314.75  2366.73  2393.30  2411.13
                             2415.04  2438.66  4416.31  4418.45  4443.87
                             4528.26  4535.56  4536.82  4554.55  4556.45
                             4562.16  4593.01  4615.30  4616.67  4623.96
                             4632.64  4638.04  4646.74  4661.61  4664.40

 Zero-point correction=                           0.337619 (Hartree/Particle)
 Thermal correction to Energy=                    0.358177
 Thermal correction to Enthalpy=                  0.359121
 Thermal correction to Gibbs Free Energy=         0.288565
 Sum of electronic and zero-point Energies=          -1069.565463
 Sum of electronic and thermal Energies=             -1069.544905
 Sum of electronic and thermal Enthalpies=           -1069.543961
 Sum of electronic and thermal Free Energies=        -1069.614516

                     E (Thermal)             CV                S
                      KCal/Mol        Cal/Mol-Kelvin    Cal/Mol-Kelvin
 Total                  224.759             81.146            148.497
 Electronic               0.000              0.000              0.000
 Translational            0.889              2.981             43.205
 Rotational               0.889              2.981             34.863
 Vibrational            222.982             75.184             70.429
 Vibration     1          0.594              1.984              5.842
 Vibration     2          0.594              1.982              5.405
 Vibration     3          0.595              1.978              4.825
 Vibration     4          0.599              1.967              4.077
 Vibration     5          0.603              1.952              3.532
 Vibration     6          0.606              1.942              3.284
 Vibration     7          0.609              1.932              3.083
 Vibration     8          0.616              1.909              2.744
 Vibration     9          0.622              1.889              2.525
 Vibration    10          0.629              1.869              2.344
 Vibration    11          0.634              1.853              2.224
 Vibration    12          0.648              1.808              1.946
 Vibration    13          0.650              1.801              1.907
 Vibration    14          0.658              1.777              1.794
 Vibration    15          0.665              1.756              1.704
 Vibration    16          0.674              1.729              1.597
 Vibration    17          0.683              1.701              1.501
 Vibration    18          0.692              1.676              1.424
 Vibration    19          0.709              1.625              1.284
 Vibration    20          0.716              1.606              1.237
 Vibration    21          0.720              1.595              1.211
 Vibration    22          0.740              1.539              1.090
 Vibration    23          0.752              1.506              1.027
 Vibration    24          0.771              1.457              0.940
 Vibration    25          0.799              1.385              0.829
 Vibration    26          0.818              1.338              0.765
 Vibration    27          0.835              1.298              0.714
 Vibration    28          0.855              1.250              0.658
 Vibration    29          0.887              1.179              0.582
 Vibration    30          0.898              1.156              0.560
 Vibration    31          0.912              1.125              0.530
 Vibration    32          0.917              1.115              0.521
 Vibration    33          0.926              1.096              0.504
 Vibration    34          0.947              1.054              0.468

                           ! Non-Optimized Parameters !
 Normal termination of Gaussian 16 at Sun Mar 10 10:13:58 2024.
