 Gaussian 16, Revision A.03,
 Gaussian 16:  ES64L-G16RevA.03 25-Dec-2016

 ----------------------------------------------------------------------
 #p CAM-B3LYP/def2TZVP EmpiricalDispersion=GD3BJ SCRF(PCM,Solvent=aceto
 nitrile) TD(Singlets,NStates=5, root=1) opt guess=(read) geom=(allchec
 k) gfinput
 ----------------------------------------------------------------------

 Structure from the checkpoint file:  "mc1_s1_b3lyp.chk"
 -----
 TITLE
 -----
 Charge =  0 Multiplicity = 1

 SCF Done:  E(RCAM-B3LYP) =  -1069.85165434     A.U. after    1 cycles
 Total Energy, E(TD-HF/TD-DFT) =  -1069.74569235
 SCF Done:  E(RCAM-B3LYP) =  -1069.83412140     A.U. after   17 cycles
 Total Energy, E(TD-HF/TD-DFT) =  -1069.74743295
 SCF Done:  E(RCAM-B3LYP) =  -1069.84347699     A.U. after   16 cycles
 Total Energy, E(TD-HF/TD-DFT) =  -1069.75512685
 SCF Done:  E(RCAM-B3LYP) =  -1069.84087525     A.U. after   14 cycles
 Total Energy, E(TD-HF/TD-DFT) =  -1069.75807842
 SCF Done:  E(RCAM-B3LYP) =  -1069.82925829     A.U. after   15 cycles
 Total Energy, E(TD-HF/TD-DFT) =  -1069.75577183
 SCF Done:  E(RCAM-B3LYP) =  -1069.83148213     A.U. after   15 cycles
 Total Energy, E(TD-HF/TD-DFT) =  -1069.75938514
 SCF Done:  E(RCAM-B3LYP) =  -1069.83320967     A.U. after   15 cycles
 Total Energy, E(TD-HF/TD-DFT) =  -1069.76030654
 SCF Done:  E(RCAM-B3LYP) =  -1069.83494426     A.U. after   15 cycles
 Total Energy, E(TD-HF/TD-DFT) =  -1069.76089948
 SCF Done:  E(RCAM-B3LYP) =  -1069.83309332     A.U. after   15 cycles
 Total Energy, E(TD-HF/TD-DFT) =  -1069.76153026
 SCF Done:  E(RCAM-B3LYP) =  -1069.83042727     A.U. after   15 cycles
 Total Energy, E(TD-HF/TD-DFT) =  -1069.76188862
 SCF Done:  E(RCAM-B3LYP) =  -1069.82798404     A.U. after   15 cycles
 Total Energy, E(TD-HF/TD-DFT) =  -1069.76192344
 SCF Done:  E(RCAM-B3LYP) =  -1069.82886219     A.U. after   13 cycles
 Total Energy, E(TD-HF/TD-DFT) =  -1069.76200988
 SCF Done:  E(RCAM-B3LYP) =  -1069.82882231     A.U. after   13 cycles
 Total Energy, E(TD-HF/TD-DFT) =  -1069.76204976
 SCF Done:  E(RCAM-B3LYP) =  -1069.82880009     A.U. after   13 cycles
 Total Energy, E(TD-HF/TD-DFT) =  -1069.76206109
 SCF Done:  E(RCAM-B3LYP) =  -1069.82890618     A.U. after   11 cycles
 Total Energy, E(TD-HF/TD-DFT) =  -1069.76206277
 SCF Done:  E(RCAM-B3LYP) =  -1069.82886349     A.U. after   10 cycles
 Total Energy, E(TD-HF/TD-DFT) =  -1069.76206367
 SCF Done:  E(RCAM-B3LYP) =  -1069.82884234     A.U. after    8 cycles
 Total Energy, E(TD-HF/TD-DFT) =  -1069.76206387
 SCF Done:  E(RCAM-B3LYP) =  -1069.82882459     A.U. after    8 cycles

 Excitation energies and oscillator strengths:

 Excited State   1:      Singlet-A      1.8166 eV  682.49 nm  f=0.1713  <S**2>=0.000
      85 -> 86         0.69273
 This state for optimization and/or second-order correction.
 Total Energy, E(TD-HF/TD-DFT) =  -1069.76206395
 Copying the excited state density for this state as the 1-particle RhoCI density.

 Excited State   2:      Singlet-A      3.0595 eV  405.24 nm  f=0.0981  <S**2>=0.000
      83 -> 86        -0.64494
      83 -> 87         0.13683
      85 -> 87         0.17192

 Excited State   3:      Singlet-A      3.3777 eV  367.07 nm  f=0.3543  <S**2>=0.000
      84 -> 86         0.68814

 Excited State   4:      Singlet-A      3.4943 eV  354.82 nm  f=0.5603  <S**2>=0.000
      83 -> 86        -0.16882
      84 -> 87         0.10503
      85 -> 87        -0.66409

 Excited State   5:      Singlet-A      4.2731 eV  290.15 nm  f=0.0022  <S**2>=0.000
      79 -> 87        -0.16501
      80 -> 86        -0.16117
      80 -> 87        -0.59434
      83 -> 87        -0.22675

 Optimization completed.
    -- Stationary point found.

                         Standard orientation:
 ---------------------------------------------------------------------
 Center     Atomic      Atomic             Coordinates (Angstroms)
 Number     Number       Type             X           Y           Z
 ---------------------------------------------------------------------
      1          6           0        4.136080   -2.404310    0.278149
      2          6           0        3.044569   -3.055196   -0.280022
      3          6           0        1.922187   -2.349890   -0.692694
      4          6           0        1.933590   -0.978209   -0.516368
      5          6           0        3.025138   -0.310049    0.027864
      6          6           0        4.133584   -1.020142    0.428393
      7          1           0        4.997144   -2.977100    0.594265
      8          1           0        3.064123   -4.130765   -0.393247
      9          1           0        4.994488   -0.516148    0.848580
     10          1           0        1.071019   -2.860135   -1.120631
     11          6           0        2.757355    1.175680    0.000268
     12          6           0        1.302892    1.192343   -0.439326
     13          7           0        0.932923   -0.060880   -0.841199
     14          6           0        2.985878    1.850281    1.350207
     15          1           0        2.365476    1.394557    2.117321
     16          1           0        2.741011    2.911040    1.294123
     17          1           0        4.034128    1.761832    1.636536
     18          6           0        3.627300    1.849083   -1.077925
     19          1           0        3.480523    1.380064   -2.050308
     20          1           0        4.680133    1.762459   -0.808367
     21          1           0        3.381771    2.907826   -1.160489
     22          6           0        0.488222    2.326904   -0.443565
     23          6           0       -1.634951    1.250931    0.220725
     24          6           0       -1.031459    0.425153    1.282384
     25          8           0       -0.022633    0.809884    1.898544
     26          6           0       -1.681302   -0.812943    1.608608
     27          6           0       -2.906934   -1.122203    1.108843
     28          6           0       -3.523157   -0.225951    0.216651
     29          6           0       -2.915630    0.928897   -0.220307
     30          6           0       -0.082153   -0.397072   -1.824643
     31          1           0       -0.557698    0.510173   -2.177086
     32          1           0       -0.840008   -1.057904   -1.407248
     33          1           0        0.395374   -0.899255   -2.666856
     34          6           0       -0.890445    2.338146   -0.314779
     35          1           0        0.997037    3.279964   -0.542049
     36          1           0       -1.437418    3.213928   -0.643786
     37          1           0       -3.412621    1.551858   -0.948406
     38          1           0       -3.422597   -2.025781    1.392983
     39          1           0       -1.196204   -1.447517    2.336875
     40          7           0       -4.844273   -0.551846   -0.289559
     41          8           0       -5.395920    0.247436   -1.025007
     42          8           0       -5.344049   -1.612162    0.043751
 ---------------------------------------------------------------------

 The electronic state is 1-A.
 Alpha  occ. eigenvalues --  -19.22397 -19.22322 -19.14824 -14.62612 -14.48364
 Alpha  occ. eigenvalues --  -10.35484 -10.31419 -10.30332 -10.29555 -10.29549
 Alpha  occ. eigenvalues --  -10.29402 -10.28649 -10.27408 -10.26845 -10.26691
 Alpha  occ. eigenvalues --  -10.26561 -10.26560 -10.26245 -10.26035 -10.25777
 Alpha  occ. eigenvalues --  -10.25506 -10.25449 -10.24226 -10.24093  -1.31733
 Alpha  occ. eigenvalues --   -1.13627  -1.11403  -1.08924  -0.96435  -0.95997
 Alpha  occ. eigenvalues --   -0.94082  -0.91086  -0.86257  -0.85504  -0.84855
 Alpha  occ. eigenvalues --   -0.84181  -0.81411  -0.78370  -0.76217  -0.73920
 Alpha  occ. eigenvalues --   -0.72906  -0.70660  -0.68738  -0.67027  -0.65793
 Alpha  occ. eigenvalues --   -0.64071  -0.62297  -0.61464  -0.59851  -0.59815
 Alpha  occ. eigenvalues --   -0.58715  -0.57374  -0.55896  -0.55780  -0.54057
 Alpha  occ. eigenvalues --   -0.53225  -0.52980  -0.52662  -0.52011  -0.51180
 Alpha  occ. eigenvalues --   -0.51016  -0.50570  -0.49011  -0.47977  -0.47369
 Alpha  occ. eigenvalues --   -0.47064  -0.45924  -0.45674  -0.45494  -0.44359
 Alpha  occ. eigenvalues --   -0.43735  -0.42898  -0.42777  -0.41871  -0.40544
 Alpha  occ. eigenvalues --   -0.39401  -0.38411  -0.38163  -0.37256  -0.36371
 Alpha  occ. eigenvalues --   -0.33265  -0.32508  -0.30463  -0.29448  -0.24935
 Alpha virt. eigenvalues --   -0.07622  -0.03149   0.01699   0.01897   0.03597
 Alpha virt. eigenvalues --    0.06472   0.07315   0.08577   0.09102   0.09569
 Alpha virt. eigenvalues --    0.09949   0.10918   0.11360   0.11846   0.12657

 Mulliken charges:
               1
     1  C   -0.145304
     2  C   -0.133787
     3  C   -0.217243
     4  C    0.164601
     5  C   -0.074562
     6  C   -0.199860
     7  H    0.152779
     8  H    0.154681
     9  H    0.155446
    10  H    0.167625
    11  C    0.204932
    12  C    0.133689
    13  N    0.033739
    14  C   -0.392384
    15  H    0.151318
    16  H    0.138997
    17  H    0.142602
    18  C   -0.384898
    19  H    0.148157
    20  H    0.152972
    21  H    0.149032
    22  C   -0.217222
    23  C   -0.022979
    24  C    0.231697
    25  O   -0.460632
    26  C   -0.253402
    27  C   -0.169325
    28  C    0.057379
    29  C   -0.181968
    30  C   -0.358901
    31  H    0.190191
    32  H    0.188154
    33  H    0.185443
    34  C   -0.152713
    35  H    0.168768
    36  H    0.169659
    37  H    0.166906
    38  H    0.167463
    39  H    0.126582
    40  N    0.414831
    41  O   -0.375388
    42  O   -0.377076
 Sum of Mulliken charges =  -0.00000

 Dipole moment (field-independent basis, Debye):
    X=             13.0112    Y=              1.7468    Z=             -5.3067  Tot=             14.1599
 Quadrupole moment (field-independent basis, Debye-Ang):
   XX=           -176.3555   YY=           -124.6017   ZZ=           -145.3857
   XY=             -6.9422   XZ=             -5.3692   YZ=             -4.9606

 Normal termination of Gaussian 16 at Tue Mar 12 00:32:45 2024.
