 Gaussian 16, Revision A.03,
 Gaussian 16:  ES64L-G16RevA.03 25-Dec-2016

 ----------------------------------------------------------------------
 #P PBE1PBE/def2TZVP opt freq=(noraman) scrf=(pcm,solvent=acetonitrile)
  EmpiricalDispersion=GD3BJ gfinput
 ----------------------------------------------------------------------

 -----
 TITLE
 -----
 Symbolic Z-matrix:
 Charge =  0 Multiplicity = 1

 SCF Done:  E(RPBE1PBE) =  -1069.10803659     A.U. after   15 cycles
 SCF Done:  E(RPBE1PBE) =  -1069.12879975     A.U. after   14 cycles
 SCF Done:  E(RPBE1PBE) =  -1069.13060052     A.U. after   14 cycles
 SCF Done:  E(RPBE1PBE) =  -1069.14085637     A.U. after   14 cycles
 SCF Done:  E(RPBE1PBE) =  -1069.06004536     A.U. after   15 cycles
 SCF Done:  E(RPBE1PBE) =  -1069.14556935     A.U. after   14 cycles
 SCF Done:  E(RPBE1PBE) =  -1069.15736181     A.U. after   13 cycles
 SCF Done:  E(RPBE1PBE) =  -1069.15992443     A.U. after   13 cycles
 SCF Done:  E(RPBE1PBE) =  -1069.16118045     A.U. after   13 cycles
 SCF Done:  E(RPBE1PBE) =  -1069.16172530     A.U. after   12 cycles
 SCF Done:  E(RPBE1PBE) =  -1069.16226339     A.U. after   12 cycles
 SCF Done:  E(RPBE1PBE) =  -1069.16238316     A.U. after   12 cycles
 SCF Done:  E(RPBE1PBE) =  -1069.16242905     A.U. after   11 cycles
 SCF Done:  E(RPBE1PBE) =  -1069.16244364     A.U. after   11 cycles
 SCF Done:  E(RPBE1PBE) =  -1069.16244776     A.U. after    9 cycles
 SCF Done:  E(RPBE1PBE) =  -1069.16244872     A.U. after    8 cycles
 SCF Done:  E(RPBE1PBE) =  -1069.16244922     A.U. after    7 cycles
 SCF Done:  E(RPBE1PBE) =  -1069.16244938     A.U. after    7 cycles
 Optimization completed.
    -- Stationary point found.
 Normal termination of Gaussian 16 at Sun Mar 10 07:08:35 2024.

 ----------------------------------------------------------------------
 #P Geom=AllCheck Guess=TCheck SCRF=Check GenChk RPBE1PBE/def2TZVP Freq
 ----------------------------------------------------------------------

 Structure from the checkpoint file:  "mc1_gs_pbe0.chk"
 -----
 TITLE
 -----
 Charge =  0 Multiplicity = 1

                         Standard orientation:
 ---------------------------------------------------------------------
 Center     Atomic      Atomic             Coordinates (Angstroms)
 Number     Number       Type             X           Y           Z
 ---------------------------------------------------------------------
      1          6           0        5.063232   -1.665928    0.250576
      2          6           0        4.231734   -2.529014   -0.453917
      3          6           0        2.973079   -2.122845   -0.884332
      4          6           0        2.599155   -0.830719   -0.574161
      5          6           0        3.410722    0.044979    0.131906
      6          6           0        4.659362   -0.366559    0.548833
      7          1           0        6.037923   -2.010476    0.574386
      8          1           0        4.565086   -3.536614   -0.670626
      9          1           0        5.314218    0.299413    1.098864
     10          1           0        2.323151   -2.798215   -1.425422
     11          6           0        2.689655    1.355413    0.281296
     12          6           0        1.365611    1.041320   -0.381492
     13          7           0        1.394694   -0.169721   -0.893708
     14          6           0        2.475809    1.748938    1.744335
     15          1           0        1.930438    0.970416    2.276318
     16          1           0        1.905266    2.677536    1.804136
     17          1           0        3.444452    1.905593    2.221789
     18          6           0        3.412544    2.475597   -0.479737
     19          1           0        3.538401    2.223794   -1.533855
     20          1           0        4.399421    2.622578   -0.038528
     21          1           0        2.862996    3.414905   -0.401328
     22          6           0        0.317362    1.987552   -0.516253
     23          6           0       -1.820800    0.723923    0.043428
     24          6           0       -1.307271   -0.298497    0.953129
     25          8           0       -0.128869   -0.316915    1.358629
     26          6           0       -2.261148   -1.292804    1.385935
     27          6           0       -3.560876   -1.287381    0.992992
     28          6           0       -4.029074   -0.259850    0.148065
     29          6           0       -3.172604    0.729233   -0.291645
     30          6           0        0.379972   -0.780071   -1.715764
     31          1           0       -0.247706   -0.001736   -2.141034
     32          1           0       -0.235458   -1.455628   -1.119837
     33          1           0        0.866825   -1.338419   -2.513755
     34          6           0       -1.028853    1.814246   -0.439376
     35          1           0        0.665828    3.002776   -0.681179
     36          1           0       -1.611047    2.685362   -0.731223
     37          1           0       -3.563891    1.514004   -0.927421
     38          1           0       -4.250915   -2.051917    1.324891
     39          1           0       -1.887694   -2.065711    2.047871
     40          7           0       -5.395401   -0.234354   -0.245660
     41          8           0       -5.788600    0.671153   -0.973226
     42          8           0       -6.137283   -1.123529    0.158175
 ---------------------------------------------------------------------

 SCF Done:  E(RPBE1PBE) =  -1069.16244938     A.U. after    1 cycles

 The electronic state is 1-A.
 Alpha  occ. eigenvalues --  -19.22580 -19.22496 -19.16390 -14.61185 -14.48633
 Alpha  occ. eigenvalues --  -10.32283 -10.29089 -10.28494 -10.27380 -10.27058
 Alpha  occ. eigenvalues --  -10.26684 -10.26146 -10.25035 -10.24969 -10.24747
 Alpha  occ. eigenvalues --  -10.24505 -10.24401 -10.24282 -10.24184 -10.23941
 Alpha  occ. eigenvalues --  -10.23938 -10.23118 -10.22347 -10.22251  -1.25709
 Alpha  occ. eigenvalues --   -1.07432  -1.06848  -1.03866  -0.90877  -0.90393
 Alpha  occ. eigenvalues --   -0.88193  -0.85056  -0.81072  -0.79877  -0.79102
 Alpha  occ. eigenvalues --   -0.78586  -0.76130  -0.72534  -0.70177  -0.68673
 Alpha  occ. eigenvalues --   -0.67127  -0.65352  -0.63204  -0.61525  -0.60256
 Alpha  occ. eigenvalues --   -0.58305  -0.56673  -0.55141  -0.54438  -0.54049
 Alpha  occ. eigenvalues --   -0.52756  -0.52199  -0.50255  -0.49997  -0.48519
 Alpha  occ. eigenvalues --   -0.47953  -0.47495  -0.47064  -0.46580  -0.45908
 Alpha  occ. eigenvalues --   -0.45259  -0.44683  -0.43705  -0.42071  -0.41818
 Alpha  occ. eigenvalues --   -0.41457  -0.40583  -0.40296  -0.39994  -0.38880
 Alpha  occ. eigenvalues --   -0.38188  -0.37571  -0.37313  -0.36309  -0.35488
 Alpha  occ. eigenvalues --   -0.35200  -0.33309  -0.32761  -0.32493  -0.30450
 Alpha  occ. eigenvalues --   -0.28640  -0.28217  -0.25962  -0.25155  -0.22099
 Alpha virt. eigenvalues --   -0.09373  -0.07083  -0.02782  -0.02377  -0.00058
 Alpha virt. eigenvalues --    0.02058   0.04215   0.05548   0.05852   0.06492
 Alpha virt. eigenvalues --    0.06845   0.07960   0.08656   0.09288   0.09615

 Mulliken charges:
               1
     1  C   -0.121627
     2  C   -0.121082
     3  C   -0.247600
     4  C    0.155011
     5  C   -0.166762
     6  C   -0.241141
     7  H    0.145538
     8  H    0.148173
     9  H    0.146449
    10  H    0.159264
    11  C    0.475109
    12  C    0.107715
    13  N    0.193159
    14  C   -0.408688
    15  H    0.154005
    16  H    0.144156
    17  H    0.145497
    18  C   -0.394608
    19  H    0.152035
    20  H    0.151959
    21  H    0.150814
    22  C   -0.396901
    23  C    0.118499
    24  C    0.224084
    25  O   -0.477616
    26  C   -0.223385
    27  C   -0.197493
    28  C    0.054643
    29  C   -0.236276
    30  C   -0.357077
    31  H    0.188550
    32  H    0.177749
    33  H    0.178872
    34  C   -0.173826
    35  H    0.150182
    36  H    0.151464
    37  H    0.154780
    38  H    0.151530
    39  H    0.117175
    40  N    0.456238
    41  O   -0.393196
    42  O   -0.395369
 Sum of Mulliken charges =  -0.00000

 Dipole moment (field-independent basis, Debye):
    X=             15.7195    Y=              2.0678    Z=             -3.5759  Tot=             16.2531
 Quadrupole moment (field-independent basis, Debye-Ang):
   XX=           -186.0566   YY=           -122.0859   ZZ=           -139.3904
   XY=             -2.0581   XZ=             -4.3167   YZ=              3.7581

  Exact polarizability: 632.230   4.443 350.694  25.074 -16.204 248.382
 Approx polarizability: 634.850  10.624 407.850  42.597 -24.427 289.789

                      1                      2                      3
                      A                      A                      A
 Frequencies --     29.1756                37.3016                44.9647
 Red. masses --      7.2981                 5.8699                 5.6135
 Frc consts  --      0.0037                 0.0048                 0.0067
 IR Inten    --      1.1293                 0.4365                 0.0978

                      4                      5                      6
                      A                      A                      A
 Frequencies --     69.9707                91.2588               108.3314
 Red. masses --      7.1516                 4.0075                 5.0152
 Frc consts  --      0.0206                 0.0197                 0.0347
 IR Inten    --      1.1365                 2.6223                 9.6944

                      7                      8                      9
                      A                      A                      A
 Frequencies --    120.6846               142.9629               161.2287
 Red. masses --      4.5906                 5.9134                 4.5667
 Frc consts  --      0.0394                 0.0712                 0.0699
 IR Inten    --      3.1449                 4.1265                13.9180

                     10                     11                     12
                      A                      A                      A
 Frequencies --    172.7192               184.9014               208.0170
 Red. masses --      3.1043                 3.0953                 1.3456
 Frc consts  --      0.0546                 0.0623                 0.0343
 IR Inten    --      1.0800                16.9924                26.8389

                     13                     14                     15
                      A                      A                      A
 Frequencies --    221.7535               232.6519               246.4378
 Red. masses --      2.3546                 1.4747                 1.6664
 Frc consts  --      0.0682                 0.0470                 0.0596
 IR Inten    --      2.1764                 1.3545                 0.2891

                     16                     17                     18
                      A                      A                      A
 Frequencies --    262.9476               274.9173               296.1836
 Red. masses --      2.9395                 1.5145                 4.9142
 Frc consts  --      0.1197                 0.0674                 0.2540
 IR Inten    --     10.3476                 2.2225                12.7906

                     19                     20                     21
                      A                      A                      A
 Frequencies --    317.4041               323.8689               338.5571
 Red. masses --      2.5689                 2.4207                 3.7324
 Frc consts  --      0.1525                 0.1496                 0.2521
 IR Inten    --      2.6085                 0.8428                 0.1486

                     22                     23                     24
                      A                      A                      A
 Frequencies --    364.7273               379.3264               402.2101
 Red. masses --      6.3325                 5.4184                 3.6637
 Frc consts  --      0.4963                 0.4594                 0.3492
 IR Inten    --      9.3196                74.7241                93.1790

                     25                     26                     27
                      A                      A                      A
 Frequencies --    435.1977               460.5845               481.1325
 Red. masses --      6.1981                 3.4486                 5.5848
 Frc consts  --      0.6916                 0.4310                 0.7617
 IR Inten    --      6.6635                 3.9856                33.9608

                     28                     29                     30
                      A                      A                      A
 Frequencies --    495.0227               530.8930               543.2455
 Red. masses --      3.0188                 5.5812                 3.3153
 Frc consts  --      0.4359                 0.9268                 0.5765
 IR Inten    --     21.5084                15.9309                 3.7172

                     31                     32                     33
                      A                      A                      A
 Frequencies --    558.5720               561.4882               568.5393
 Red. masses --      5.4169                 5.2131                 4.0177
 Frc consts  --      0.9958                 0.9683                 0.7652
 IR Inten    --      3.4399                18.3608                 2.6467

                     34                     35                     36
                      A                      A                      A
 Frequencies --    586.8002               637.0216               646.2960
 Red. masses --      3.6782                 4.2739                 5.4559
 Frc consts  --      0.7462                 1.0219                 1.3427
 IR Inten    --      1.7329                 2.4215                23.1620

                     37                     38                     39
                      A                      A                      A
 Frequencies --    676.1108               693.2782               746.5162
 Red. masses --      3.6200                 4.3950                 2.5363
 Frc consts  --      0.9750                 1.2446                 0.8328
 IR Inten    --    152.9163                12.5486                21.1683

                     40                     41                     42
                      A                      A                      A
 Frequencies --    757.7127               768.1718               773.9439
 Red. masses --      2.9031                 1.3957                 3.9419
 Frc consts  --      0.9820                 0.4852                 1.3912
 IR Inten    --     58.1809                81.0551                10.1825

                     43                     44                     45
                      A                      A                      A
 Frequencies --    787.9642               797.2130               799.0470
 Red. masses --      3.8105                 3.3766                 6.0574
 Frc consts  --      1.3940                 1.2644                 2.2787
 IR Inten    --      7.2230                16.7260                24.9171

                     46                     47                     48
                      A                      A                      A
 Frequencies --    816.8600               855.0027               862.5161
 Red. masses --      2.3046                 5.8562                 2.6643
 Frc consts  --      0.9060                 2.5223                 1.1678
 IR Inten    --     75.2930                19.0203                33.7480

                     49                     50                     51
                      A                      A                      A
 Frequencies --    887.9745               906.2452               952.1790
 Red. masses --      1.4291                 3.5295                 1.4738
 Frc consts  --      0.6639                 1.7079                 0.7873
 IR Inten    --      0.1076                32.4266                84.9456

                     52                     53                     54
                      A                      A                      A
 Frequencies --    959.5854               961.5127               965.4679
 Red. masses --      3.0808                 1.4908                 2.4959
 Frc consts  --      1.6714                 0.8120                 1.3707
 IR Inten    --     12.1907                 6.1144               211.9843

                     55                     56                     57
                      A                      A                      A
 Frequencies --    967.9227               995.4454               997.1546
 Red. masses --      1.4269                 1.5741                 1.3102
 Frc consts  --      0.7877                 0.9190                 0.7676
 IR Inten    --      4.1944               171.1627                 6.5563

                     58                     59                     60
                      A                      A                      A
 Frequencies --    999.8754              1029.9805              1050.8673
 Red. masses --      1.2961                 1.3335                 2.3844
 Frc consts  --      0.7634                 0.8335                 1.5514
 IR Inten    --      0.6294                 0.4226                49.4828

                     61                     62                     63
                      A                      A                      A
 Frequencies --   1064.9510              1096.4866              1111.1277
 Red. masses --      2.3660                 2.5053                 1.6925
 Frc consts  --      1.5810                 1.7746                 1.2311
 IR Inten    --     44.7537                 2.8687               413.6175

                     64                     65                     66
                      A                      A                      A
 Frequencies --   1134.6331              1144.6375              1149.9938
 Red. masses --      1.4224                 1.4521                 1.4283
 Frc consts  --      1.0789                 1.1210                 1.1129
 IR Inten    --      7.8969                18.3212                21.4589

                     67                     68                     69
                      A                      A                      A
 Frequencies --   1156.9652              1169.7454              1176.3372
 Red. masses --      1.6825                 3.7334                 1.2800
 Frc consts  --      1.3270                 3.0098                 1.0436
 IR Inten    --     70.2131                12.6566                22.1359

                     70                     71                     72
                      A                      A                      A
 Frequencies --   1185.9087              1218.1599              1257.0166
 Red. masses --      2.0947                 2.8549                 2.1939
 Frc consts  --      1.7357                 2.4961                 2.0424
 IR Inten    --    159.1369                30.7914                57.5909

                     73                     74                     75
                      A                      A                      A
 Frequencies --   1264.2043              1266.8015              1292.4763
 Red. masses --      1.7561                 1.5417                 3.2982
 Frc consts  --      1.6536                 1.4577                 3.2462
 IR Inten    --    491.7440                 1.2499                13.0473

                     76                     77                     78
                      A                      A                      A
 Frequencies --   1328.5609              1350.5887              1361.1553
 Red. masses --      1.7874                 6.7117                 3.1885
 Frc consts  --      1.8588                 7.2132                 3.4806
 IR Inten    --      5.3277              3749.6582                 1.6378

                     79                     80                     81
                      A                      A                      A
 Frequencies --   1385.7414              1388.8069              1404.6874
 Red. masses --      1.2454                 2.2596                 2.8035
 Frc consts  --      1.4090                 2.5678                 3.2592
 IR Inten    --     12.5031                10.6187                 7.5305

                     82                     83                     84
                      A                      A                      A
 Frequencies --   1406.7692              1411.4096              1431.2186
 Red. masses --      3.0235                 1.5368                 1.2643
 Frc consts  --      3.5253                 1.8037                 1.5259
 IR Inten    --     76.5971                 3.3075                47.9236

                     85                     86                     87
                      A                      A                      A
 Frequencies --   1462.5959              1468.6519              1471.1796
 Red. masses --      1.0771                 1.0721                 1.0793
 Frc consts  --      1.3576                 1.3624                 1.3763
 IR Inten    --     10.6854                11.9014                31.9775

                     88                     89                     90
                      A                      A                      A
 Frequencies --   1471.9500              1480.7883              1482.5875
 Red. masses --      1.7766                 1.3179                 1.1264
 Frc consts  --      2.2679                 1.7026                 1.4588
 IR Inten    --     36.3339                87.4433                 2.1245

                     91                     92                     93
                      A                      A                      A
 Frequencies --   1489.4210              1502.2511              1509.0223
 Red. masses --      1.1316                 2.6320                 2.5642
 Frc consts  --      1.4790                 3.4997                 3.4402
 IR Inten    --     32.8438               128.2094               122.1690

                     94                     95                     96
                      A                      A                      A
 Frequencies --   1525.9674              1530.2290              1574.1668
 Red. masses --      3.9518                 4.0666                 9.2072
 Frc consts  --      5.4217                 5.6104                13.4425
 IR Inten    --    258.8097               116.9136               570.3810

                     97                     98                     99
                      A                      A                      A
 Frequencies --   1605.1422              1625.8141              1656.1726
 Red. masses --      8.3166                 6.8267                 7.0606
 Frc consts  --     12.6248                10.6318                11.4105
 IR Inten    --    212.3080               378.9893                67.7942

                    100                    101                    102
                      A                      A                      A
 Frequencies --   1668.2499              1669.7459              1687.4100
 Red. masses --      7.3318                 7.1375                 7.8748
 Frc consts  --     12.0222                11.7246                13.2109
 IR Inten    --   1300.4266                12.0552                67.0757

                    103                    104                    105
                      A                      A                      A
 Frequencies --   3059.8580              3062.6215              3079.0175
 Red. masses --      1.0338                 1.0347                 1.0347
 Frc consts  --      5.7028                 5.7180                 5.7797
 IR Inten    --     22.3710                41.3664                11.1616

                    106                    107                    108
                      A                      A                      A
 Frequencies --   3141.0730              3144.7670              3146.5774
 Red. masses --      1.1033                 1.1027                 1.1039
 Frc consts  --      6.4134                 6.4253                 6.4394
 IR Inten    --      9.9461                40.6003                20.7383

                    109                    110                    111
                      A                      A                      A
 Frequencies --   3155.4908              3158.3894              3163.8605
 Red. masses --      1.0854                 1.1029                 1.1031
 Frc consts  --      6.3674                 6.4822                 6.5059
 IR Inten    --      9.8671                 5.4561                10.3055

                    112                    113                    114
                      A                      A                      A
 Frequencies --   3178.8772              3193.5711              3198.5956
 Red. masses --      1.0888                 1.1042                 1.0872
 Frc consts  --      6.4823                 6.6352                 6.5538
 IR Inten    --      6.0704                 2.1285                 1.4115

                    115                    116                    117
                      A                      A                      A
 Frequencies --   3201.5779              3208.0188              3218.7228
 Red. masses --      1.0893                 1.0904                 1.0906
 Frc consts  --      6.5787                 6.6118                 6.6568
 IR Inten    --      8.6606                 7.5052                 0.2469

                    118                    119                    120
                      A                      A                      A
 Frequencies --   3218.8191              3228.8471              3232.0721
 Red. masses --      1.0945                 1.0966                 1.0938
 Frc consts  --      6.6810                 6.7358                 6.7324
 IR Inten    --     17.8662                 5.4856                 3.3244

 - Thermochemistry -
 -------------------
 Temperature   298.150 Kelvin.  Pressure   1.00000 Atm.
 Atom     1 has atomic number  6 and mass  12.00000

 Molecular mass:   322.13174 amu.
 Principal axes and moments of inertia in atomic units:
                           1         2         3
     Eigenvalues --  2988.76658********************
           X            0.99999   0.00434   0.00139
           Y           -0.00436   0.99990   0.01323
           Z           -0.00133  -0.01323   0.99991
 This molecule is an asymmetric top.
 Rotational symmetry number  1.
 Warning -- assumption of classical behavior for rotation
           may cause significant error
 Rotational temperatures (Kelvin)      0.02898     0.00599     0.00553
 Rotational constants (GHZ):           0.60384     0.12490     0.11517
 Zero-point vibrational energy     882702.5 (Joules/Mol)
                                  210.97095 (Kcal/Mol)
 Warning -- explicit consideration of  34 degrees of freedom as
           vibrations may cause significant error
 Vibrational temperatures:     41.98    53.67    64.69   100.67   131.30
          (Kelvin)            155.86   173.64   205.69   231.97   248.50
                              266.03   299.29   319.05   334.73   354.57
                              378.32   395.54   426.14   456.67   465.98
                              487.11   524.76   545.77   578.69   626.15
                              662.68   692.24   712.23   763.84   781.61
                              803.66   807.86   818.00   844.27   916.53
                              929.88   972.77   997.47  1074.07  1090.18
                             1105.23  1113.53  1133.70  1147.01  1149.65
                             1175.28  1230.16  1240.97  1277.60  1303.88
                             1369.97  1380.63  1383.40  1389.09  1392.62
                             1432.22  1434.68  1438.60  1481.91  1511.96
                             1532.23  1577.60  1598.66  1632.48  1646.88
                             1654.58  1664.61  1683.00  1692.49  1706.26
                             1752.66  1808.57  1818.91  1822.64  1859.59
                             1911.50  1943.20  1958.40  1993.77  1998.18
                             2021.03  2024.03  2030.70  2059.20  2104.35
                             2113.06  2116.70  2117.81  2130.52  2133.11
                             2142.94  2161.40  2171.15  2195.53  2201.66
                             2264.87  2309.44  2339.18  2382.86  2400.24
                             2402.39  2427.81  4402.45  4406.43  4430.02
                             4519.30  4524.62  4527.22  4540.05  4544.22
                             4552.09  4573.70  4594.84  4602.07  4606.36
                             4615.62  4631.02  4631.16  4645.59  4650.23

 Zero-point correction=                           0.336204 (Hartree/Particle)
 Thermal correction to Energy=                    0.356972
 Thermal correction to Enthalpy=                  0.357916
 Thermal correction to Gibbs Free Energy=         0.286761
 Sum of electronic and zero-point Energies=          -1068.826246
 Sum of electronic and thermal Energies=             -1068.805477
 Sum of electronic and thermal Enthalpies=           -1068.804533
 Sum of electronic and thermal Free Energies=        -1068.875688

                     E (Thermal)             CV                S
                      KCal/Mol        Cal/Mol-Kelvin    Cal/Mol-Kelvin
 Total                  224.003             81.629            149.759
 Electronic               0.000              0.000              0.000
 Translational            0.889              2.981             43.205
 Rotational               0.889              2.981             34.869
 Vibrational            222.226             75.667             71.684
 Vibration     1          0.593              1.984              5.885
 Vibration     2          0.594              1.982              5.397
 Vibration     3          0.595              1.979              5.027
 Vibration     4          0.598              1.968              4.154
 Vibration     5          0.602              1.955              3.633
 Vibration     6          0.606              1.943              3.299
 Vibration     7          0.609              1.932              3.089
 Vibration     8          0.616              1.910              2.764
 Vibration     9          0.622              1.890              2.535
 Vibration    10          0.626              1.876              2.406
 Vibration    11          0.631              1.860              2.278
 Vibration    12          0.641              1.828              2.061
 Vibration    13          0.648              1.808              1.945
 Vibration    14          0.653              1.791              1.858
 Vibration    15          0.661              1.769              1.756
 Vibration    16          0.670              1.741              1.642
 Vibration    17          0.677              1.720              1.565
 Vibration    18          0.690              1.681              1.438
 Vibration    19          0.704              1.640              1.323
 Vibration    20          0.708              1.628              1.290
 Vibration    21          0.719              1.598              1.219
 Vibration    22          0.738              1.545              1.102
 Vibration    23          0.749              1.514              1.042
 Vibration    24          0.768              1.465              0.955
 Vibration    25          0.796              1.394              0.842
 Vibration    26          0.818              1.337              0.764
 Vibration    27          0.837              1.292              0.707
 Vibration    28          0.851              1.261              0.671
 Vibration    29          0.886              1.182              0.585
 Vibration    30          0.898              1.154              0.558
 Vibration    31          0.914              1.121              0.527
 Vibration    32          0.917              1.115              0.521
 Vibration    33          0.925              1.099              0.507
 Vibration    34          0.944              1.060              0.473

                           ! Non-Optimized Parameters !
 Normal termination of Gaussian 16 at Sun Mar 10 09:06:02 2024.
