 Gaussian 16, Revision A.03,
 Gaussian 16:  ES64L-G16RevA.03 25-Dec-2016

 ----------------------------------------------------------------------
 #p CAM-B3LYP/def2TZVP EmpiricalDispersion=GD3BJ SCRF(PCM,Solvent=aceto
 ne) TD(Singlets,NStates=5, root=1) opt guess=(read) geom=(allcheck) gf
 input
 ----------------------------------------------------------------------

 Structure from the checkpoint file:  "mc1_s1_b3lyp.chk"
 -----
 TITLE
 -----
 Charge =  0 Multiplicity = 1

 SCF Done:  E(RCAM-B3LYP) =  -1069.85080565     A.U. after    2 cycles
 Total Energy, E(TD-HF/TD-DFT) =  -1069.74518726
 SCF Done:  E(RCAM-B3LYP) =  -1069.83260087     A.U. after   17 cycles
 Total Energy, E(TD-HF/TD-DFT) =  -1069.74639728
 SCF Done:  E(RCAM-B3LYP) =  -1069.84301159     A.U. after   16 cycles
 Total Energy, E(TD-HF/TD-DFT) =  -1069.75440511
 SCF Done:  E(RCAM-B3LYP) =  -1069.84038171     A.U. after   14 cycles
 Total Energy, E(TD-HF/TD-DFT) =  -1069.75737544
 SCF Done:  E(RCAM-B3LYP) =  -1069.82782091     A.U. after   16 cycles
 Total Energy, E(TD-HF/TD-DFT) =  -1069.75519159
 SCF Done:  E(RCAM-B3LYP) =  -1069.83005930     A.U. after   15 cycles
 Total Energy, E(TD-HF/TD-DFT) =  -1069.75854536
 SCF Done:  E(RCAM-B3LYP) =  -1069.83205744     A.U. after   15 cycles
 Total Energy, E(TD-HF/TD-DFT) =  -1069.75963936
 SCF Done:  E(RCAM-B3LYP) =  -1069.83448607     A.U. after   15 cycles
 Total Energy, E(TD-HF/TD-DFT) =  -1069.76032157
 SCF Done:  E(RCAM-B3LYP) =  -1069.83233195     A.U. after   15 cycles
 Total Energy, E(TD-HF/TD-DFT) =  -1069.76095922
 SCF Done:  E(RCAM-B3LYP) =  -1069.82944833     A.U. after   15 cycles
 Total Energy, E(TD-HF/TD-DFT) =  -1069.76128361
 SCF Done:  E(RCAM-B3LYP) =  -1069.82693272     A.U. after   15 cycles
 Total Energy, E(TD-HF/TD-DFT) =  -1069.76126004
 SCF Done:  E(RCAM-B3LYP) =  -1069.82814546     A.U. after   14 cycles
 Total Energy, E(TD-HF/TD-DFT) =  -1069.76142912
 SCF Done:  E(RCAM-B3LYP) =  -1069.82781680     A.U. after   13 cycles
 Total Energy, E(TD-HF/TD-DFT) =  -1069.76146597
 SCF Done:  E(RCAM-B3LYP) =  -1069.82798882     A.U. after   13 cycles
 Total Energy, E(TD-HF/TD-DFT) =  -1069.76148362
 SCF Done:  E(RCAM-B3LYP) =  -1069.82798535     A.U. after   12 cycles
 Total Energy, E(TD-HF/TD-DFT) =  -1069.76148598
 SCF Done:  E(RCAM-B3LYP) =  -1069.82797843     A.U. after   10 cycles
 Total Energy, E(TD-HF/TD-DFT) =  -1069.76148680
 SCF Done:  E(RCAM-B3LYP) =  -1069.82797853     A.U. after    8 cycles
 Total Energy, E(TD-HF/TD-DFT) =  -1069.76148694
 SCF Done:  E(RCAM-B3LYP) =  -1069.82796882     A.U. after    8 cycles

 Excitation energies and oscillator strengths:

 Excited State   1:      Singlet-A      1.8091 eV  685.35 nm  f=0.1596  <S**2>=0.000
      85 -> 86         0.69254
 This state for optimization and/or second-order correction.
 Total Energy, E(TD-HF/TD-DFT) =  -1069.76148699
 Copying the excited state density for this state as the 1-particle RhoCI density.

 Excited State   2:      Singlet-A      3.0406 eV  407.77 nm  f=0.0895  <S**2>=0.000
      83 -> 86        -0.64838
      83 -> 87         0.13305
      85 -> 87         0.16054

 Excited State   3:      Singlet-A      3.3803 eV  366.79 nm  f=0.3592  <S**2>=0.000
      84 -> 86         0.68747

 Excited State   4:      Singlet-A      3.5079 eV  353.44 nm  f=0.5542  <S**2>=0.000
      83 -> 86        -0.15817
      85 -> 87        -0.66776

 Excited State   5:      Singlet-A      4.2756 eV  289.98 nm  f=0.0020  <S**2>=0.000
      79 -> 87        -0.15050
      80 -> 86        -0.15745
      80 -> 87        -0.59766
      83 -> 87        -0.22882

 Optimization completed.
    -- Stationary point found.

                         Standard orientation:
 ---------------------------------------------------------------------
 Center     Atomic      Atomic             Coordinates (Angstroms)
 Number     Number       Type             X           Y           Z
 ---------------------------------------------------------------------
      1          6           0        4.132314   -2.406965    0.277741
      2          6           0        3.039398   -3.057560   -0.277656
      3          6           0        1.916916   -2.351707   -0.689385
      4          6           0        1.929749   -0.979950   -0.514966
      5          6           0        3.022581   -0.312124    0.026694
      6          6           0        4.131091   -1.022623    0.426175
      7          1           0        4.993379   -2.980047    0.593310
      8          1           0        3.057734   -4.133309   -0.389403
      9          1           0        4.993024   -0.518705    0.844382
     10          1           0        1.064558   -2.861849   -1.115120
     11          6           0        2.755993    1.173870   -0.001652
     12          6           0        1.301243    1.191491   -0.440065
     13          7           0        0.929231   -0.061956   -0.839804
     14          6           0        2.985625    1.848856    1.347911
     15          1           0        2.365592    1.393665    2.115573
     16          1           0        2.740721    2.909614    1.291662
     17          1           0        4.034072    1.760359    1.633603
     18          6           0        3.626155    1.845947   -1.080367
     19          1           0        3.478843    1.376526   -2.052491
     20          1           0        4.679057    1.758658   -0.811247
     21          1           0        3.381644    2.904909   -1.163558
     22          6           0        0.488155    2.328027   -0.447416
     23          6           0       -1.634212    1.254327    0.220975
     24          6           0       -1.030503    0.431790    1.284093
     25          8           0       -0.020355    0.817870    1.897630
     26          6           0       -1.679635   -0.805290    1.614453
     27          6           0       -2.904667   -1.117565    1.114189
     28          6           0       -3.519476   -0.225725    0.217600
     29          6           0       -2.912126    0.928612   -0.222552
     30          6           0       -0.085858   -0.397891   -1.822982
     31          1           0       -0.560556    0.509597   -2.176062
     32          1           0       -0.844569   -1.057540   -1.405151
     33          1           0        0.390933   -0.901280   -2.664986
     34          6           0       -0.888789    2.343069   -0.314317
     35          1           0        0.998762    3.279614   -0.550900
     36          1           0       -1.434593    3.222327   -0.635610
     37          1           0       -3.408778    1.548002   -0.953934
     38          1           0       -3.420220   -2.020370    1.401002
     39          1           0       -1.194699   -1.436417    2.345768
     40          7           0       -4.839483   -0.555076   -0.290901
     41          8           0       -5.389488    0.240918   -1.030811
     42          8           0       -5.338514   -1.614544    0.045337
 ---------------------------------------------------------------------

 The electronic state is 1-A.
 Alpha  occ. eigenvalues --  -19.22311 -19.22237 -19.14710 -14.62528 -14.48445
 Alpha  occ. eigenvalues --  -10.35576 -10.31324 -10.30376 -10.29627 -10.29565
 Alpha  occ. eigenvalues --  -10.29461 -10.28575 -10.27348 -10.26890 -10.26622
 Alpha  occ. eigenvalues --  -10.26613 -10.26610 -10.26289 -10.26077 -10.25821
 Alpha  occ. eigenvalues --  -10.25535 -10.25457 -10.24246 -10.24022  -1.31659
 Alpha  occ. eigenvalues --   -1.13560  -1.11458  -1.08823  -0.96457  -0.95962
 Alpha  occ. eigenvalues --   -0.94135  -0.91096  -0.86229  -0.85462  -0.84894
 Alpha  occ. eigenvalues --   -0.84231  -0.81444  -0.78421  -0.76230  -0.73892
 Alpha  occ. eigenvalues --   -0.72910  -0.70691  -0.68731  -0.67034  -0.65817
 Alpha  occ. eigenvalues --   -0.64016  -0.62299  -0.61388  -0.59909  -0.59791
 Alpha  occ. eigenvalues --   -0.58698  -0.57420  -0.55896  -0.55771  -0.54052
 Alpha  occ. eigenvalues --   -0.53229  -0.53017  -0.52705  -0.52053  -0.51187
 Alpha  occ. eigenvalues --   -0.51032  -0.50594  -0.49049  -0.47994  -0.47408
 Alpha  occ. eigenvalues --   -0.47012  -0.45951  -0.45634  -0.45525  -0.44410
 Alpha  occ. eigenvalues --   -0.43709  -0.42906  -0.42831  -0.41885  -0.40580
 Alpha  occ. eigenvalues --   -0.39362  -0.38322  -0.38077  -0.37244  -0.36294
 Alpha  occ. eigenvalues --   -0.33244  -0.32542  -0.30379  -0.29466  -0.24900
 Alpha virt. eigenvalues --   -0.07627  -0.03064   0.01673   0.01890   0.03573
 Alpha virt. eigenvalues --    0.06445   0.07265   0.08532   0.09085   0.09516
 Alpha virt. eigenvalues --    0.09909   0.10938   0.11313   0.11797   0.12639

 Mulliken charges:
               1
     1  C   -0.144426
     2  C   -0.132923
     3  C   -0.216530
     4  C    0.164718
     5  C   -0.072103
     6  C   -0.199259
     7  H    0.152200
     8  H    0.154106
     9  H    0.154643
    10  H    0.166940
    11  C    0.202792
    12  C    0.133877
    13  N    0.034351
    14  C   -0.391107
    15  H    0.153091
    16  H    0.138296
    17  H    0.141678
    18  C   -0.384253
    19  H    0.147680
    20  H    0.152683
    21  H    0.148661
    22  C   -0.216586
    23  C   -0.021862
    24  C    0.231231
    25  O   -0.459992
    26  C   -0.253204
    27  C   -0.168713
    28  C    0.055476
    29  C   -0.184171
    30  C   -0.359122
    31  H    0.189731
    32  H    0.188481
    33  H    0.185084
    34  C   -0.151826
    35  H    0.167450
    36  H    0.169031
    37  H    0.166173
    38  H    0.167155
    39  H    0.126227
    40  N    0.414348
    41  O   -0.374301
    42  O   -0.375724
 Sum of Mulliken charges =  -0.00000

 Dipole moment (field-independent basis, Debye):
    X=             12.9922    Y=              1.7197    Z=             -5.2264  Tot=             14.1092
 Quadrupole moment (field-independent basis, Debye-Ang):
   XX=           -176.0992   YY=           -124.6793   ZZ=           -145.3906
   XY=             -7.0136   XZ=             -5.3569   YZ=             -4.9610

 Normal termination of Gaussian 16 at Sun Mar 10 15:33:21 2024.
