 Gaussian 16, Revision A.03,
 Gaussian 16:  ES64L-G16RevA.03 25-Dec-2016

 ----------------------------------------------------------------------
 #P PBE1PBE/def2TZVP opt freq=(noraman) scrf=(pcm,solvent=acetone) Empi
 ricalDispersion=GD3BJ gfinput
 ----------------------------------------------------------------------

 -----
 TITLE
 -----
 Symbolic Z-matrix:
 Charge =  0 Multiplicity = 1

 SCF Done:  E(RPBE1PBE) =  -1069.10749595     A.U. after   15 cycles
 SCF Done:  E(RPBE1PBE) =  -1069.12822524     A.U. after   14 cycles
 SCF Done:  E(RPBE1PBE) =  -1069.12977629     A.U. after   14 cycles
 SCF Done:  E(RPBE1PBE) =  -1069.13976102     A.U. after   14 cycles
 SCF Done:  E(RPBE1PBE) =  -1069.05959837     A.U. after   15 cycles
 SCF Done:  E(RPBE1PBE) =  -1069.14395010     A.U. after   14 cycles
 SCF Done:  E(RPBE1PBE) =  -1069.15627419     A.U. after   13 cycles
 SCF Done:  E(RPBE1PBE) =  -1069.15901681     A.U. after   13 cycles
 SCF Done:  E(RPBE1PBE) =  -1069.16034479     A.U. after   12 cycles
 SCF Done:  E(RPBE1PBE) =  -1069.16085914     A.U. after   12 cycles
 SCF Done:  E(RPBE1PBE) =  -1069.16144778     A.U. after   12 cycles
 SCF Done:  E(RPBE1PBE) =  -1069.16156633     A.U. after   12 cycles
 SCF Done:  E(RPBE1PBE) =  -1069.16161671     A.U. after   11 cycles
 SCF Done:  E(RPBE1PBE) =  -1069.16163320     A.U. after   11 cycles
 SCF Done:  E(RPBE1PBE) =  -1069.16163799     A.U. after    9 cycles
 SCF Done:  E(RPBE1PBE) =  -1069.16163897     A.U. after    9 cycles
 SCF Done:  E(RPBE1PBE) =  -1069.16163950     A.U. after    7 cycles
 SCF Done:  E(RPBE1PBE) =  -1069.16163966     A.U. after    7 cycles
 Optimization completed.
    -- Stationary point found.
 Normal termination of Gaussian 16 at Fri Mar  8 23:04:15 2024.

 ----------------------------------------------------------------------
 #P Geom=AllCheck Guess=TCheck SCRF=Check GenChk RPBE1PBE/def2TZVP Freq
 ----------------------------------------------------------------------

 Structure from the checkpoint file:  "mc1_gs_pbe0.chk"
 -----
 TITLE
 -----
 Charge =  0 Multiplicity = 1

                         Standard orientation:
 ---------------------------------------------------------------------
 Center     Atomic      Atomic             Coordinates (Angstroms)
 Number     Number       Type             X           Y           Z
 ---------------------------------------------------------------------
      1          6           0        5.065347   -1.663703    0.250253
      2          6           0        4.234356   -2.527399   -0.453955
      3          6           0        2.975294   -2.122210   -0.884030
      4          6           0        2.600293   -0.830371   -0.573984
      5          6           0        3.411382    0.045878    0.131947
      6          6           0        4.660379   -0.364717    0.548574
      7          1           0        6.040291   -2.007537    0.574038
      8          1           0        4.568316   -3.534848   -0.670433
      9          1           0        5.314677    0.301671    1.098791
     10          1           0        2.325585   -2.798353   -1.424423
     11          6           0        2.689129    1.355591    0.282206
     12          6           0        1.365432    1.041070   -0.381340
     13          7           0        1.395552   -0.170280   -0.893661
     14          6           0        2.473558    1.746263    1.745827
     15          1           0        1.928201    0.966319    2.275694
     16          1           0        1.902006    2.674169    1.806848
     17          1           0        3.441651    1.902832    2.224487
     18          6           0        3.411789    2.477520   -0.476164
     19          1           0        3.539598    2.227384   -1.530472
     20          1           0        4.397921    2.625213   -0.033474
     21          1           0        2.861217    3.416219   -0.397323
     22          6           0        0.317180    1.986508   -0.516588
     23          6           0       -1.821098    0.722619    0.040636
     24          6           0       -1.307150   -0.299294    0.950949
     25          8           0       -0.128277   -0.318591    1.354371
     26          6           0       -2.261610   -1.292023    1.386447
     27          6           0       -3.561543   -1.286230    0.994420
     28          6           0       -4.029770   -0.259603    0.148231
     29          6           0       -3.173625    0.728278   -0.293286
     30          6           0        0.381210   -0.781101   -1.715593
     31          1           0       -0.245410   -0.002876   -2.142734
     32          1           0       -0.235750   -1.454912   -1.119261
     33          1           0        0.868279   -1.341232   -2.512241
     34          6           0       -1.029534    1.812264   -0.442392
     35          1           0        0.665196    3.002302   -0.679014
     36          1           0       -1.611788    2.682834   -0.735903
     37          1           0       -3.565333    1.512464   -0.929545
     38          1           0       -4.252151   -2.049550    1.327953
     39          1           0       -1.888036   -2.063941    2.049443
     40          7           0       -5.396991   -0.234076   -0.244867
     41          8           0       -5.789717    0.670614   -0.973260
     42          8           0       -6.138319   -1.122486    0.160680
 ---------------------------------------------------------------------

 SCF Done:  E(RPBE1PBE) =  -1069.16163966     A.U. after    1 cycles

 The electronic state is 1-A.
 Alpha  occ. eigenvalues --  -19.22522 -19.22435 -19.16347 -14.61128 -14.48630
 Alpha  occ. eigenvalues --  -10.32286 -10.29048 -10.28516 -10.27403 -10.27096
 Alpha  occ. eigenvalues --  -10.26644 -10.26156 -10.25055 -10.24939 -10.24774
 Alpha  occ. eigenvalues --  -10.24507 -10.24432 -10.24240 -10.24213 -10.23967
 Alpha  occ. eigenvalues --  -10.23911 -10.23176 -10.22360 -10.22213  -1.25661
 Alpha  occ. eigenvalues --   -1.07390  -1.06854  -1.03832  -0.90898  -0.90354
 Alpha  occ. eigenvalues --   -0.88214  -0.85051  -0.81045  -0.79861  -0.79113
 Alpha  occ. eigenvalues --   -0.78614  -0.76130  -0.72569  -0.70181  -0.68645
 Alpha  occ. eigenvalues --   -0.67139  -0.65364  -0.63190  -0.61526  -0.60269
 Alpha  occ. eigenvalues --   -0.58263  -0.56665  -0.55085  -0.54466  -0.54020
 Alpha  occ. eigenvalues --   -0.52745  -0.52212  -0.50254  -0.49982  -0.48515
 Alpha  occ. eigenvalues --   -0.47950  -0.47521  -0.47080  -0.46611  -0.45937
 Alpha  occ. eigenvalues --   -0.45242  -0.44677  -0.43726  -0.42080  -0.41829
 Alpha  occ. eigenvalues --   -0.41480  -0.40568  -0.40294  -0.40014  -0.38913
 Alpha  occ. eigenvalues --   -0.38191  -0.37576  -0.37337  -0.36323  -0.35516
 Alpha  occ. eigenvalues --   -0.35165  -0.33293  -0.32684  -0.32429  -0.30387
 Alpha  occ. eigenvalues --   -0.28644  -0.28234  -0.25931  -0.25124  -0.22065
 Alpha virt. eigenvalues --   -0.09375  -0.07014  -0.02790  -0.02386  -0.00065
 Alpha virt. eigenvalues --    0.02077   0.04156   0.05562   0.05802   0.06452
 Alpha virt. eigenvalues --    0.06817   0.07954   0.08635   0.09246   0.09579

 Mulliken charges:
               1
     1  C   -0.121142
     2  C   -0.120505
     3  C   -0.247274
     4  C    0.155965
     5  C   -0.165783
     6  C   -0.240922
     7  H    0.144775
     8  H    0.147411
     9  H    0.145471
    10  H    0.158472
    11  C    0.474078
    12  C    0.106331
    13  N    0.191966
    14  C   -0.407374
    15  H    0.155370
    16  H    0.143446
    17  H    0.144470
    18  C   -0.393878
    19  H    0.151498
    20  H    0.151338
    21  H    0.150274
    22  C   -0.396812
    23  C    0.119402
    24  C    0.224090
    25  O   -0.475610
    26  C   -0.222049
    27  C   -0.196769
    28  C    0.053151
    29  C   -0.236695
    30  C   -0.357043
    31  H    0.188056
    32  H    0.177909
    33  H    0.177888
    34  C   -0.173481
    35  H    0.149067
    36  H    0.150604
    37  H    0.154453
    38  H    0.151447
    39  H    0.117006
    40  N    0.456167
    41  O   -0.391471
    42  O   -0.393298
 Sum of Mulliken charges =  -0.00000

 Dipole moment (field-independent basis, Debye):
    X=             15.5433    Y=              2.0206    Z=             -3.4828  Tot=             16.0564
 Quadrupole moment (field-independent basis, Debye-Ang):
   XX=           -185.6619   YY=           -122.2595   ZZ=           -139.3840
   XY=             -2.0721   XZ=             -4.2319   YZ=              3.7525

  Exact polarizability: 626.264   4.590 345.546  23.858 -15.932 244.289
 Approx polarizability: 634.909  10.971 408.072  41.639 -24.735 289.928

                      1                      2                      3
                      A                      A                      A
 Frequencies --     29.3351                37.4736                44.6771
 Red. masses --      7.2856                 5.8979                 5.6072
 Frc consts  --      0.0037                 0.0049                 0.0066
 IR Inten    --      1.0985                 0.4198                 0.0901

                      4                      5                      6
                      A                      A                      A
 Frequencies --     69.7703                91.0896               108.5319
 Red. masses --      7.1111                 3.9997                 5.0226
 Frc consts  --      0.0204                 0.0196                 0.0349
 IR Inten    --      1.1026                 2.5407                 9.4324

                      7                      8                      9
                      A                      A                      A
 Frequencies --    120.9087               143.0665               161.4831
 Red. masses --      4.5951                 5.9194                 4.5497
 Frc consts  --      0.0396                 0.0714                 0.0699
 IR Inten    --      3.1835                 3.9786                13.0870

                     10                     11                     12
                      A                      A                      A
 Frequencies --    173.0670               185.2154               208.2106
 Red. masses --      3.1011                 3.0368                 1.3663
 Frc consts  --      0.0547                 0.0614                 0.0349
 IR Inten    --      1.0037                16.0332                27.5352

                     13                     14                     15
                      A                      A                      A
 Frequencies --    222.3690               232.4160               246.8648
 Red. masses --      2.3975                 1.4725                 1.6645
 Frc consts  --      0.0698                 0.0469                 0.0598
 IR Inten    --      2.0433                 1.2611                 0.2750

                     16                     17                     18
                      A                      A                      A
 Frequencies --    263.3292               275.5006               296.2556
 Red. masses --      3.1065                 1.4556                 4.9518
 Frc consts  --      0.1269                 0.0651                 0.2561
 IR Inten    --     10.3120                 1.8613                13.0158

                     19                     20                     21
                      A                      A                      A
 Frequencies --    317.5855               324.1462               338.5737
 Red. masses --      2.5645                 2.4134                 3.7314
 Frc consts  --      0.1524                 0.1494                 0.2520
 IR Inten    --      2.6730                 0.7987                 0.1899

                     22                     23                     24
                      A                      A                      A
 Frequencies --    364.5282               379.4165               402.2069
 Red. masses --      6.3313                 5.4209                 3.6622
 Frc consts  --      0.4957                 0.4598                 0.3491
 IR Inten    --      9.5990                71.8891                93.3771

                     25                     26                     27
                      A                      A                      A
 Frequencies --    435.4194               460.8767               481.2106
 Red. masses --      6.2095                 3.4473                 5.5983
 Frc consts  --      0.6936                 0.4314                 0.7638
 IR Inten    --      6.4768                 3.6612                33.4089

                     28                     29                     30
                      A                      A                      A
 Frequencies --    494.9580               530.8795               543.2587
 Red. masses --      3.0185                 5.5919                 3.3160
 Frc consts  --      0.4357                 0.9285                 0.5766
 IR Inten    --     21.0744                15.3708                 4.0256

                     31                     32                     33
                      A                      A                      A
 Frequencies --    558.4945               561.4893               568.5256
 Red. masses --      5.4246                 5.2113                 4.0119
 Frc consts  --      0.9969                 0.9680                 0.7640
 IR Inten    --      3.3373                18.1615                 2.6981

                     34                     35                     36
                      A                      A                      A
 Frequencies --    586.6429               637.0022               646.1994
 Red. masses --      3.6820                 4.2866                 5.4194
 Frc consts  --      0.7466                 1.0248                 1.3333
 IR Inten    --      1.6570                 2.5050                23.5222

                     37                     38                     39
                      A                      A                      A
 Frequencies --    675.9952               693.3307               746.4044
 Red. masses --      3.6115                 4.4164                 2.5348
 Frc consts  --      0.9724                 1.2508                 0.8320
 IR Inten    --    152.2165                12.1073                21.8767

                     40                     41                     42
                      A                      A                      A
 Frequencies --    757.7361               768.0466               773.9765
 Red. masses --      2.9075                 1.3899                 3.9995
 Frc consts  --      0.9836                 0.4831                 1.4116
 IR Inten    --     57.4695                78.6270                 9.6861

                     43                     44                     45
                      A                      A                      A
 Frequencies --    787.6788               797.2330               799.0455
 Red. masses --      3.8179                 3.3646                 6.0730
 Frc consts  --      1.3957                 1.2600                 2.2845
 IR Inten    --      7.0662                16.3537                24.2872

                     46                     47                     48
                      A                      A                      A
 Frequencies --    816.7389               855.1102               862.7556
 Red. masses --      2.3070                 5.8706                 2.6425
 Frc consts  --      0.9067                 2.5292                 1.1589
 IR Inten    --     73.6635                19.7968                33.1450

                     49                     50                     51
                      A                      A                      A
 Frequencies --    887.5517               906.3975               952.0808
 Red. masses --      1.4293                 3.5252                 1.4735
 Frc consts  --      0.6634                 1.7063                 0.7870
 IR Inten    --      0.1060                31.4848                87.3054

                     52                     53                     54
                      A                      A                      A
 Frequencies --    959.6089               960.8926               965.5346
 Red. masses --      2.7096                 1.5949                 2.5346
 Frc consts  --      1.4701                 0.8676                 1.3922
 IR Inten    --     11.8991                 6.6158               215.1326

                     55                     56                     57
                      A                      A                      A
 Frequencies --    967.7843               995.0338               997.4697
 Red. masses --      1.4122                 1.5877                 1.3054
 Frc consts  --      0.7793                 0.9262                 0.7652
 IR Inten    --      2.0103               168.6145                 3.4103

                     58                     59                     60
                      A                      A                      A
 Frequencies --    998.9428              1029.8052              1051.0696
 Red. masses --      1.2952                 1.3336                 2.3771
 Frc consts  --      0.7615                 0.8333                 1.5473
 IR Inten    --      0.7877                 0.4352                47.7410

                     61                     62                     63
                      A                      A                      A
 Frequencies --   1065.1330              1096.4818              1111.3879
 Red. masses --      2.3677                 2.5081                 1.6947
 Frc consts  --      1.5827                 1.7766                 1.2333
 IR Inten    --     43.9071                 2.3737               402.0969

                     64                     65                     66
                      A                      A                      A
 Frequencies --   1134.4747              1144.7968              1150.0850
 Red. masses --      1.4207                 1.4511                 1.4286
 Frc consts  --      1.0773                 1.1205                 1.1133
 IR Inten    --      7.8017                18.9170                21.6530

                     67                     68                     69
                      A                      A                      A
 Frequencies --   1156.9330              1169.9779              1176.5061
 Red. masses --      1.6879                 3.7540                 1.2832
 Frc consts  --      1.3311                 3.0276                 1.0465
 IR Inten    --     68.8698                11.9506                21.1100

                     70                     71                     72
                      A                      A                      A
 Frequencies --   1185.9943              1218.3657              1256.9571
 Red. masses --      2.0731                 2.8444                 2.1840
 Frc consts  --      1.7180                 2.4877                 2.0330
 IR Inten    --    149.9533                27.8006                62.8784

                     73                     74                     75
                      A                      A                      A
 Frequencies --   1264.0955              1266.6730              1292.5189
 Red. masses --      1.7454                 1.5496                 3.3005
 Frc consts  --      1.6432                 1.4649                 3.2486
 IR Inten    --    466.5656                 1.3644                12.3333

                     76                     77                     78
                      A                      A                      A
 Frequencies --   1328.6162              1352.8144              1361.2213
 Red. masses --      1.7849                 6.8074                 3.2035
 Frc consts  --      1.8563                 7.3402                 3.4973
 IR Inten    --      6.2446              3656.1020                 0.7598

                     79                     80                     81
                      A                      A                      A
 Frequencies --   1385.8097              1389.0605              1404.8641
 Red. masses --      1.2427                 2.2616                 2.7973
 Frc consts  --      1.4062                 2.5711                 3.2528
 IR Inten    --     12.5058                10.0495                10.5368

                     82                     83                     84
                      A                      A                      A
 Frequencies --   1406.6217              1411.5015              1431.2160
 Red. masses --      2.9938                 1.5479                 1.2667
 Frc consts  --      3.4901                 1.8170                 1.5288
 IR Inten    --     77.3070                 3.0673                48.0813

                     85                     86                     87
                      A                      A                      A
 Frequencies --   1462.9035              1468.8666              1471.3114
 Red. masses --      1.0801                 1.0717                 1.0810
 Frc consts  --      1.3619                 1.3623                 1.3787
 IR Inten    --     11.1474                10.7901                32.4318

                     88                     89                     90
                      A                      A                      A
 Frequencies --   1472.1997              1481.0458              1483.0788
 Red. masses --      1.7843                 1.3279                 1.1210
 Frc consts  --      2.2785                 1.7161                 1.4527
 IR Inten    --     34.5496                88.3817                 1.8156

                     91                     92                     93
                      A                      A                      A
 Frequencies --   1489.7524              1502.3913              1509.1873
 Red. masses --      1.1323                 2.5803                 2.5556
 Frc consts  --      1.4806                 3.4315                 3.4295
 IR Inten    --     31.2351               127.3705               123.4914

                     94                     95                     96
                      A                      A                      A
 Frequencies --   1526.7992              1530.2841              1575.5106
 Red. masses --      3.8936                 4.1220                 9.2860
 Frc consts  --      5.3477                 5.6873                13.5807
 IR Inten    --    251.7206               125.2816               549.4482

                     97                     98                     99
                      A                      A                      A
 Frequencies --   1605.9244              1625.3861              1656.4664
 Red. masses --      8.3484                 6.8067                 7.0948
 Frc consts  --     12.6854                10.5950                11.4697
 IR Inten    --    210.4574               364.3589                76.4808

                    100                    101                    102
                      A                      A                      A
 Frequencies --   1668.6409              1669.8689              1687.4528
 Red. masses --      7.3345                 7.1443                 7.8731
 Frc consts  --     12.0322                11.7375                13.2086
 IR Inten    --   1287.3669                10.4588                66.1601

                    103                    104                    105
                      A                      A                      A
 Frequencies --   3059.6780              3062.4987              3078.8969
 Red. masses --      1.0338                 1.0347                 1.0347
 Frc consts  --      5.7022                 5.7177                 5.7790
 IR Inten    --     21.9356                40.6472                11.2483

                    106                    107                    108
                      A                      A                      A
 Frequencies --   3140.8391              3144.4441              3146.2955
 Red. masses --      1.1033                 1.1027                 1.1038
 Frc consts  --      6.4124                 6.4237                 6.4380
 IR Inten    --      9.2932                40.5526                20.2300

                    109                    110                    111
                      A                      A                      A
 Frequencies --   3154.9324              3158.1820              3164.1601
 Red. masses --      1.0854                 1.1029                 1.1031
 Frc consts  --      6.3652                 6.4814                 6.5070
 IR Inten    --      9.5600                 5.4219                 9.6129

                    112                    113                    114
                      A                      A                      A
 Frequencies --   3178.5952              3193.0885              3198.3258
 Red. masses --      1.0887                 1.1042                 1.0873
 Frc consts  --      6.4807                 6.6330                 6.5528
 IR Inten    --      6.0693                 2.1832                 1.4969

                    115                    116                    117
                      A                      A                      A
 Frequencies --   3201.8743              3207.8328              3218.5840
 Red. masses --      1.0893                 1.0904                 1.0905
 Frc consts  --      6.5797                 6.6109                 6.6561
 IR Inten    --      8.2286                 7.3547                 0.2295

                    118                    119                    120
                      A                      A                      A
 Frequencies --   3218.6991              3228.7956              3232.0445
 Red. masses --      1.0945                 1.0966                 1.0939
 Frc consts  --      6.6805                 6.7354                 6.7324
 IR Inten    --     17.7736                 5.3626                 3.2466

 - Thermochemistry -
 -------------------
 Temperature   298.150 Kelvin.  Pressure   1.00000 Atm.
 Atom     1 has atomic number  6 and mass  12.00000

 Molecular mass:   322.13174 amu.
 Principal axes and moments of inertia in atomic units:
                           1         2         3
     Eigenvalues --  2986.48737********************
           X            0.99999   0.00433   0.00140
           Y           -0.00435   0.99990   0.01329
           Z           -0.00134  -0.01330   0.99991
 This molecule is an asymmetric top.
 Rotational symmetry number  1.
 Warning -- assumption of classical behavior for rotation
           may cause significant error
 Rotational temperatures (Kelvin)      0.02900     0.00599     0.00553
 Rotational constants (GHZ):           0.60430     0.12485     0.11514
 Zero-point vibrational energy     882749.2 (Joules/Mol)
                                  210.98213 (Kcal/Mol)
 Warning -- explicit consideration of  34 degrees of freedom as
           vibrations may cause significant error
 Vibrational temperatures:     42.21    53.92    64.28   100.38   131.06
          (Kelvin)            156.15   173.96   205.84   232.34   249.00
                              266.48   299.57   319.94   334.39   355.18
                              378.87   396.38   426.25   456.93   466.37
                              487.13   524.47   545.90   578.69   626.47
                              663.10   692.35   712.13   763.82   781.63
                              803.55   807.86   817.98   844.05   916.50
                              929.74   972.61   997.55  1073.91  1090.21
                             1105.05  1113.58  1133.29  1147.04  1149.65
                             1175.11  1230.31  1241.31  1276.99  1304.10
                             1369.83  1380.66  1382.51  1389.19  1392.43
                             1431.63  1435.14  1437.26  1481.66  1512.25
                             1532.49  1577.59  1599.04  1632.26  1647.11
                             1654.72  1664.57  1683.34  1692.73  1706.38
                             1752.96  1808.48  1818.75  1822.46  1859.65
                             1911.58  1946.40  1958.49  1993.87  1998.55
                             2021.29  2023.81  2030.84  2059.20  2104.79
                             2113.37  2116.89  2118.17  2130.89  2133.82
                             2143.42  2161.61  2171.38  2196.72  2201.74
                             2266.81  2310.57  2338.57  2383.29  2400.80
                             2402.57  2427.87  4402.19  4406.25  4429.85
                             4518.97  4524.15  4526.82  4539.24  4543.92
                             4552.52  4573.29  4594.14  4601.68  4606.78
                             4615.36  4630.82  4630.99  4645.52  4650.19

 Zero-point correction=                           0.336221 (Hartree/Particle)
 Thermal correction to Energy=                    0.356985
 Thermal correction to Enthalpy=                  0.357929
 Thermal correction to Gibbs Free Energy=         0.286789
 Sum of electronic and zero-point Energies=          -1068.825418
 Sum of electronic and thermal Energies=             -1068.804655
 Sum of electronic and thermal Enthalpies=           -1068.803711
 Sum of electronic and thermal Free Energies=        -1068.874850

                     E (Thermal)             CV                S
                      KCal/Mol        Cal/Mol-Kelvin    Cal/Mol-Kelvin
 Total                  224.011             81.623            149.725
 Electronic               0.000              0.000              0.000
 Translational            0.889              2.981             43.205
 Rotational               0.889              2.981             34.869
 Vibrational            222.234             75.661             71.651
 Vibration     1          0.593              1.984              5.874
 Vibration     2          0.594              1.982              5.388
 Vibration     3          0.595              1.980              5.040
 Vibration     4          0.598              1.969              4.160
 Vibration     5          0.602              1.956              3.637
 Vibration     6          0.606              1.942              3.295
 Vibration     7          0.609              1.932              3.086
 Vibration     8          0.616              1.910              2.762
 Vibration     9          0.622              1.890              2.532
 Vibration    10          0.627              1.876              2.402
 Vibration    11          0.631              1.860              2.275
 Vibration    12          0.642              1.828              2.059
 Vibration    13          0.648              1.807              1.940
 Vibration    14          0.653              1.791              1.860
 Vibration    15          0.661              1.768              1.753
 Vibration    16          0.670              1.740              1.640
 Vibration    17          0.677              1.719              1.561
 Vibration    18          0.690              1.681              1.438
 Vibration    19          0.704              1.640              1.323
 Vibration    20          0.709              1.627              1.289
 Vibration    21          0.719              1.598              1.219
 Vibration    22          0.738              1.545              1.103
 Vibration    23          0.749              1.514              1.041
 Vibration    24          0.768              1.465              0.955
 Vibration    25          0.796              1.393              0.841
 Vibration    26          0.819              1.337              0.764
 Vibration    27          0.838              1.292              0.707
 Vibration    28          0.851              1.261              0.671
 Vibration    29          0.886              1.182              0.585
 Vibration    30          0.898              1.154              0.558
 Vibration    31          0.914              1.121              0.527
 Vibration    32          0.917              1.115              0.521
 Vibration    33          0.925              1.099              0.507
 Vibration    34          0.944              1.060              0.473

                           ! Non-Optimized Parameters !
 Normal termination of Gaussian 16 at Sat Mar  9 00:58:40 2024.
