 Gaussian 16, Revision A.03,
 Gaussian 16:  ES64L-G16RevA.03 25-Dec-2016

 ----------------------------------------------------------------------
 #P CAM-B3LYP/def2TZVP opt freq=(noraman) scrf=(pcm,solvent=acetone) Em
 piricalDispersion=GD3BJ gfinput
 ----------------------------------------------------------------------

 -----
 TITLE
 -----
 Symbolic Z-matrix:
 Charge =  0 Multiplicity = 1

 SCF Done:  E(RCAM-B3LYP) =  -1069.79828872     A.U. after   17 cycles
 SCF Done:  E(RCAM-B3LYP) =  -1069.81750294     A.U. after   15 cycles
 SCF Done:  E(RCAM-B3LYP) =  -1069.81689589     A.U. after   16 cycles
 SCF Done:  E(RCAM-B3LYP) =  -1069.82269227     A.U. after   15 cycles
 SCF Done:  E(RCAM-B3LYP) =  -1069.83377262     A.U. after   16 cycles
 SCF Done:  E(RCAM-B3LYP) =  -1069.83974817     A.U. after   14 cycles
 SCF Done:  E(RCAM-B3LYP) =  -1069.84673919     A.U. after   15 cycles
 SCF Done:  E(RCAM-B3LYP) =  -1069.84880215     A.U. after   14 cycles
 SCF Done:  E(RCAM-B3LYP) =  -1069.84993115     A.U. after   14 cycles
 SCF Done:  E(RCAM-B3LYP) =  -1069.85009438     A.U. after   13 cycles
 SCF Done:  E(RCAM-B3LYP) =  -1069.85049541     A.U. after   14 cycles
 SCF Done:  E(RCAM-B3LYP) =  -1069.85075792     A.U. after   13 cycles
 SCF Done:  E(RCAM-B3LYP) =  -1069.85078949     A.U. after   13 cycles
 SCF Done:  E(RCAM-B3LYP) =  -1069.85080274     A.U. after   11 cycles
 SCF Done:  E(RCAM-B3LYP) =  -1069.85080498     A.U. after   11 cycles
 SCF Done:  E(RCAM-B3LYP) =  -1069.85080539     A.U. after   10 cycles
 SCF Done:  E(RCAM-B3LYP) =  -1069.85080558     A.U. after    8 cycles
 SCF Done:  E(RCAM-B3LYP) =  -1069.85080565     A.U. after    7 cycles
 Optimization completed.
    -- Stationary point found.

 1\1\GINC-N042\FOpt\RCAM-B3LYP\def2TZVP\C19H18N2O3\ARTD\09-Mar-2024\0\\
 #P CAM-B3LYP/def2TZVP opt freq=(noraman) scrf=(pcm,solvent=acetone) Em
 piricalDispersion=GD3BJ gfinput\\TITLE\\0,1\C,-2.4051656091,2.29872420
 07,0.5968036158\C,-1.5804979485,1.2193583506,0.3132255264\C,-0.2646076
 146,1.4096115338,-0.0885241949\C,0.169227121,2.7123305957,-0.190089895
 4\C,-0.6362937402,3.8025583435,0.0827817111\C,-1.9381177467,3.60374090
 77,0.4853512048\H,-3.4261991398,2.1218404542,0.9057408721\H,-1.9658770
 85,0.2131408511,0.4023301838\H,-2.5890967135,4.438868113,0.7072992201\

 Normal termination of Gaussian 16 at Sat Mar  9 01:38:08 2024.

 ----------------------------------------------------------------------
 #P Geom=AllCheck Guess=TCheck SCRF=Check GenChk RCAM-B3LYP/def2TZVP Fr
 eq
 ----------------------------------------------------------------------

 Structure from the checkpoint file:  "mc1_gs_b3lyp.chk"
 -----
 TITLE
 -----
 Charge =  0 Multiplicity = 1

                         Standard orientation:
 ---------------------------------------------------------------------
 Center     Atomic      Atomic             Coordinates (Angstroms)
 Number     Number       Type             X           Y           Z
 ---------------------------------------------------------------------
      1          6           0        5.036945   -1.668133    0.302311
      2          6           0        4.234427   -2.516743   -0.446920
      3          6           0        2.993924   -2.102073   -0.914218
      4          6           0        2.609545   -0.819179   -0.594780
      5          6           0        3.390750    0.041469    0.154167
      6          6           0        4.621419   -0.376995    0.608785
      7          1           0        5.997509   -2.017536    0.655121
      8          1           0        4.575571   -3.518198   -0.669720
      9          1           0        5.253576    0.276824    1.194763
     10          1           0        2.366179   -2.765907   -1.490364
     11          6           0        2.662756    1.350908    0.302035
     12          6           0        1.358890    1.040929   -0.406584
     13          7           0        1.408951   -0.148755   -0.944579
     14          6           0        2.412919    1.731879    1.762995
     15          1           0        1.862766    0.947594    2.276266
     16          1           0        1.836029    2.654290    1.819083
     17          1           0        3.367892    1.892104    2.261844
     18          6           0        3.402439    2.480574   -0.432020
     19          1           0        3.549937    2.242466   -1.484780
     20          1           0        4.379064    2.620935    0.028360
     21          1           0        2.854591    3.418327   -0.354730
     22          6           0        0.305999    1.993437   -0.558512
     23          6           0       -1.818052    0.725125    0.036886
     24          6           0       -1.291873   -0.295478    0.930487
     25          8           0       -0.103830   -0.314105    1.313189
     26          6           0       -2.233134   -1.293981    1.375947
     27          6           0       -3.534414   -1.292567    0.999540
     28          6           0       -4.015543   -0.268522    0.160258
     29          6           0       -3.168243    0.723739   -0.285702
     30          6           0        0.408424   -0.762611   -1.790886
     31          1           0       -0.233727    0.008230   -2.200831
     32          1           0       -0.188934   -1.464363   -1.212019
     33          1           0        0.910789   -1.288891   -2.597976
     34          6           0       -1.028716    1.822727   -0.453625
     35          1           0        0.656460    2.999182   -0.756692
     36          1           0       -1.615012    2.692450   -0.732181
     37          1           0       -3.568625    1.507768   -0.912530
     38          1           0       -4.214839   -2.058720    1.339901
     39          1           0       -1.848102   -2.063926    2.031142
     40          7           0       -5.387564   -0.248406   -0.220388
     41          8           0       -5.794203    0.654976   -0.943647
     42          8           0       -6.124666   -1.139563    0.187851
 ---------------------------------------------------------------------

 SCF Done:  E(RCAM-B3LYP) =  -1069.85080565     A.U. after    1 cycles

 The electronic state is 1-A.
 Alpha  occ. eigenvalues --  -19.22084 -19.22013 -19.15145 -14.62420 -14.49035
 Alpha  occ. eigenvalues --  -10.35073 -10.31261 -10.30631 -10.29515 -10.29392
 Alpha  occ. eigenvalues --  -10.28511 -10.28255 -10.27065 -10.27024 -10.26878
 Alpha  occ. eigenvalues --  -10.26486 -10.26481 -10.26314 -10.26261 -10.26027
 Alpha  occ. eigenvalues --  -10.25483 -10.25370 -10.24440 -10.24011  -1.31060
 Alpha  occ. eigenvalues --   -1.12754  -1.12584  -1.08805  -0.96851  -0.96163
 Alpha  occ. eigenvalues --   -0.94087  -0.90913  -0.86842  -0.85674  -0.84962
 Alpha  occ. eigenvalues --   -0.84551  -0.82102  -0.78544  -0.75849  -0.74255
 Alpha  occ. eigenvalues --   -0.72881  -0.71129  -0.68945  -0.67287  -0.66027
 Alpha  occ. eigenvalues --   -0.63833  -0.62316  -0.61104  -0.60062  -0.59716
 Alpha  occ. eigenvalues --   -0.58383  -0.58046  -0.55843  -0.55562  -0.54065
 Alpha  occ. eigenvalues --   -0.53438  -0.53143  -0.52644  -0.52193  -0.51473
 Alpha  occ. eigenvalues --   -0.50792  -0.50221  -0.49301  -0.47683  -0.47282
 Alpha  occ. eigenvalues --   -0.46893  -0.46020  -0.45625  -0.45411  -0.44235
 Alpha  occ. eigenvalues --   -0.43647  -0.42765  -0.42736  -0.41504  -0.40724
 Alpha  occ. eigenvalues --   -0.40193  -0.38495  -0.38136  -0.37620  -0.35988
 Alpha  occ. eigenvalues --   -0.33126  -0.32663  -0.30660  -0.29778  -0.25729
 Alpha virt. eigenvalues --   -0.05304  -0.03149   0.01331   0.01637   0.04190
 Alpha virt. eigenvalues --    0.06367   0.07026   0.08635   0.09210   0.09847
 Alpha virt. eigenvalues --    0.10177   0.10926   0.11552   0.12070   0.12610

 Mulliken charges:
               1
     1  C   -0.139195
     2  C   -0.140296
     3  C   -0.201465
     4  C    0.165501
     5  C   -0.096406
     6  C   -0.206749
     7  H    0.153065
     8  H    0.155765
     9  H    0.156836
    10  H    0.171731
    11  C    0.273615
    12  C    0.164794
    13  N    0.100454
    14  C   -0.392105
    15  H    0.151478
    16  H    0.141701
    17  H    0.141882
    18  C   -0.393496
    19  H    0.149972
    20  H    0.151107
    21  H    0.147475
    22  C   -0.338705
    23  C    0.015224
    24  C    0.205461
    25  O   -0.484110
    26  C   -0.219551
    27  C   -0.176019
    28  C    0.018190
    29  C   -0.169163
    30  C   -0.363115
    31  H    0.190945
    32  H    0.188430
    33  H    0.175381
    34  C   -0.108962
    35  H    0.156842
    36  H    0.154009
    37  H    0.165673
    38  H    0.162117
    39  H    0.122149
    40  N    0.417106
    41  O   -0.383218
    42  O   -0.384348
 Sum of Mulliken charges =   0.00000

 Dipole moment (field-independent basis, Debye):
    X=             15.8856    Y=              2.1703    Z=             -3.7916  Tot=             16.4754
 Quadrupole moment (field-independent basis, Debye-Ang):
   XX=           -188.7170   YY=           -124.1735   ZZ=           -139.9372
   XY=             -2.6909   XZ=             -4.1607   YZ=              3.9587

  Exact polarizability: 573.118   5.814 336.039  27.251 -14.799 242.608
 Approx polarizability: 434.585   5.982 319.002  31.543 -15.760 240.476

                      1                      2                      3
                      A                      A                      A
 Frequencies --     28.3011                33.8447                46.1356
 Red. masses --      7.3133                 5.6047                 6.2272
 Frc consts  --      0.0035                 0.0038                 0.0078
 IR Inten    --      1.0938                 0.4139                 0.0995

                      4                      5                      6
                      A                      A                      A
 Frequencies --     70.2071                97.5265               109.4798
 Red. masses --      7.1877                 4.0603                 4.7399
 Frc consts  --      0.0209                 0.0228                 0.0335
 IR Inten    --      1.0445                 3.2296                 9.8979

                      7                      8                      9
                      A                      A                      A
 Frequencies --    120.3792               143.9746               162.4333
 Red. masses --      4.8014                 6.1647                 4.0352
 Frc consts  --      0.0410                 0.0753                 0.0627
 IR Inten    --      1.9359                 3.9592                16.9537

                     10                     11                     12
                      A                      A                      A
 Frequencies --    172.5745               184.3408               202.0182
 Red. masses --      3.1311                 3.6259                 1.2008
 Frc consts  --      0.0549                 0.0726                 0.0289
 IR Inten    --      0.3621                26.3713                13.9130

                     13                     14                     15
                      A                      A                      A
 Frequencies --    225.5562               236.6782               251.0110
 Red. masses --      2.6290                 1.4095                 1.8691
 Frc consts  --      0.0788                 0.0465                 0.0694
 IR Inten    --      1.9471                 2.5005                 0.3552

                     16                     17                     18
                      A                      A                      A
 Frequencies --    266.3286               277.7270               299.4611
 Red. masses --      3.1865                 1.3913                 4.9175
 Frc consts  --      0.1332                 0.0632                 0.2598
 IR Inten    --      9.9581                 1.7096                13.8266

                     19                     20                     21
                      A                      A                      A
 Frequencies --    321.7933               329.2538               344.2484
 Red. masses --      2.5014                 2.5265                 3.7220
 Frc consts  --      0.1526                 0.1614                 0.2599
 IR Inten    --      1.6115                 1.4666                 0.0858

                     22                     23                     24
                      A                      A                      A
 Frequencies --    368.8408               384.6348               409.8119
 Red. masses --      7.1237                 5.0190                 3.7151
 Frc consts  --      0.5710                 0.4375                 0.3676
 IR Inten    --      1.8703                91.7901                80.2917

                     25                     26                     27
                      A                      A                      A
 Frequencies --    440.9624               466.4012               483.0506
 Red. masses --      6.0449                 3.5200                 5.4817
 Frc consts  --      0.6925                 0.4511                 0.7536
 IR Inten    --      6.9492                 5.3991                25.5271

                     28                     29                     30
                      A                      A                      A
 Frequencies --    503.7749               536.6941               548.5094
 Red. masses --      2.9944                 5.6533                 3.4100
 Frc consts  --      0.4477                 0.9594                 0.6045
 IR Inten    --     18.5901                21.8141                 0.9925

                     31                     32                     33
                      A                      A                      A
 Frequencies --    562.1463               565.8206               574.5645
 Red. masses --      5.0939                 4.9059                 4.0347
 Frc consts  --      0.9484                 0.9254                 0.7848
 IR Inten    --      5.6697                12.0645                 2.0700

                     34                     35                     36
                      A                      A                      A
 Frequencies --    595.1348               645.1475               653.1390
 Red. masses --      3.5672                 4.3140                 5.1224
 Frc consts  --      0.7444                 1.0579                 1.2875
 IR Inten    --      1.5462                 3.2182                19.7105

                     37                     38                     39
                      A                      A                      A
 Frequencies --    681.2465               699.6856               752.0104
 Red. masses --      3.6512                 4.3269                 2.5903
 Frc consts  --      0.9984                 1.2481                 0.8631
 IR Inten    --    147.0123                 9.9145                27.6381

                     40                     41                     42
                      A                      A                      A
 Frequencies --    766.8317               779.1676               782.3161
 Red. masses --      3.0731                 2.3893                 1.7150
 Frc consts  --      1.0647                 0.8546                 0.6184
 IR Inten    --     41.6679                62.8944                34.3966

                     43                     44                     45
                      A                      A                      A
 Frequencies --    801.4506               802.8509               804.4873
 Red. masses --      3.6545                 3.5964                 5.3030
 Frc consts  --      1.3830                 1.3658                 2.0221
 IR Inten    --      1.4832                20.1314                22.6632

                     46                     47                     48
                      A                      A                      A
 Frequencies --    826.3100               862.6248               874.1010
 Red. masses --      2.4647                 6.2990                 2.5612
 Frc consts  --      0.9915                 2.7616                 1.1530
 IR Inten    --     77.9431                10.0764                40.0838

                     49                     50                     51
                      A                      A                      A
 Frequencies --    905.5042               910.9378               964.5368
 Red. masses --      1.4722                 3.6561                 3.7349
 Frc consts  --      0.7112                 1.7875                 2.0473
 IR Inten    --      0.2822                32.6083                29.9434

                     52                     53                     54
                      A                      A                      A
 Frequencies --    972.5143               977.5253               978.5322
 Red. masses --      2.5920                 1.4794                 1.4835
 Frc consts  --      1.4444                 0.8329                 0.8370
 IR Inten    --    211.1015                21.1702                 5.0985

                     55                     56                     57
                      A                      A                      A
 Frequencies --    983.0453              1019.1493              1020.5907
 Red. masses --      1.3729                 1.3273                 1.5082
 Frc consts  --      0.7817                 0.8122                 0.9256
 IR Inten    --      5.7090                11.7539               225.2145

                     58                     59                     60
                      A                      A                      A
 Frequencies --   1023.0932              1045.2919              1056.1405
 Red. masses --      1.3250                 1.3721                 2.4815
 Frc consts  --      0.8171                 0.8833                 1.6309
 IR Inten    --      1.1314                 2.6167                48.7718

                     61                     62                     63
                      A                      A                      A
 Frequencies --   1068.2584              1109.4662              1116.6614
 Red. masses --      2.3305                 2.5417                 1.8132
 Frc consts  --      1.5669                 1.8434                 1.3321
 IR Inten    --     32.0233                33.3292               593.4373

                     64                     65                     66
                      A                      A                      A
 Frequencies --   1150.1974              1155.4459              1160.9015
 Red. masses --      1.4331                 1.4898                 1.4319
 Frc consts  --      1.1170                 1.1718                 1.1370
 IR Inten    --     13.4085                 3.1111                17.8565

                     67                     68                     69
                      A                      A                      A
 Frequencies --   1167.6772              1182.2166              1185.2489
 Red. masses --      1.6790                 3.4276                 1.4988
 Frc consts  --      1.3488                 2.8225                 1.2405
 IR Inten    --     78.3977                13.9924                61.9903

                     70                     71                     72
                      A                      A                      A
 Frequencies --   1190.4490              1219.8760              1264.4829
 Red. masses --      1.9950                 2.8643                 2.3146
 Frc consts  --      1.6658                 2.5113                 2.1805
 IR Inten    --    149.2445                39.2357               141.9500

                     73                     74                     75
                      A                      A                      A
 Frequencies --   1270.4063              1282.0270              1303.7112
 Red. masses --      1.6855                 1.6292                 3.3378
 Frc consts  --      1.6027                 1.5776                 3.3426
 IR Inten    --    575.4732                62.3776                23.2194

                     76                     77                     78
                      A                      A                      A
 Frequencies --   1337.5936              1342.9558              1359.5914
 Red. masses --      2.1112                 4.9401                 2.7947
 Frc consts  --      2.2255                 5.2494                 3.0437
 IR Inten    --      2.4872              3292.3904                 1.5062

                     79                     80                     81
                      A                      A                      A
 Frequencies --   1388.4569              1393.5296              1410.5534
 Red. masses --      4.0240                 2.4769                 1.2585
 Frc consts  --      4.5706                 2.8339                 1.4753
 IR Inten    --     20.2982                40.8970                11.2885

                     82                     83                     84
                      A                      A                      A
 Frequencies --   1416.8270              1433.4071              1451.8682
 Red. masses --      2.6498                 1.2203                 1.2612
 Frc consts  --      3.1340                 1.4772                 1.5664
 IR Inten    --     36.1884                 4.6794                47.4360

                     85                     86                     87
                      A                      A                      A
 Frequencies --   1479.1929              1483.2338              1488.2788
 Red. masses --      1.3977                 1.4865                 1.0565
 Frc consts  --      1.8019                 1.9267                 1.3788
 IR Inten    --     26.5753                72.6022                19.9623

                     88                     89                     90
                      A                      A                      A
 Frequencies --   1489.7143              1496.1569              1499.4725
 Red. masses --      1.0737                 1.1972                 1.1023
 Frc consts  --      1.4039                 1.5790                 1.4602
 IR Inten    --     23.5447                78.3451                 0.6627

                     91                     92                     93
                      A                      A                      A
 Frequencies --   1507.2723              1511.2968              1522.0093
 Red. masses --      1.1307                 2.6655                 3.0345
 Frc consts  --      1.5135                 3.5870                 4.1416
 IR Inten    --     36.0350               153.0748               262.2769

                     94                     95                     96
                      A                      A                      A
 Frequencies --   1525.3579              1540.3110              1570.7503
 Red. masses --      2.9747                 2.8676                 7.7266
 Frc consts  --      4.0780                 4.0085                11.2319
 IR Inten    --     53.3434               100.3375               443.5459

                     97                     98                     99
                      A                      A                      A
 Frequencies --   1605.5560              1643.3069              1666.2532
 Red. masses --      7.6935                 6.9778                 6.5568
 Frc consts  --     11.6849                11.1021                10.7257
 IR Inten    --    319.1714               637.3657               161.8499

                    100                    101                    102
                      A                      A                      A
 Frequencies --   1680.9672              1683.8553              1702.6573
 Red. masses --      7.0649                 6.7314                 7.6989
 Frc consts  --     11.7618                11.2452                13.1502
 IR Inten    --    760.3909               326.0476                69.8293

                    103                    104                    105
                      A                      A                      A
 Frequencies --   3068.3075              3072.1509              3093.2419
 Red. masses --      1.0341                 1.0353                 1.0346
 Frc consts  --      5.7359                 5.7573                 5.8326
 IR Inten    --     20.2388                36.9058                10.0013

                    106                    107                    108
                      A                      A                      A
 Frequencies --   3140.8495              3144.0602              3146.8333
 Red. masses --      1.1037                 1.1043                 1.1035
 Frc consts  --      6.4150                 6.4317                 6.4382
 IR Inten    --     16.1913                22.3246                34.7262

                    109                    110                    111
                      A                      A                      A
 Frequencies --   3163.3715              3166.7556              3167.8186
 Red. masses --      1.0860                 1.1047                 1.1032
 Frc consts  --      6.4032                 6.5270                 6.5229
 IR Inten    --     10.9811                 5.2096                 7.2787

                    112                    113                    114
                      A                      A                      A
 Frequencies --   3189.0644              3202.4181              3203.4804
 Red. masses --      1.0890                 1.0880                 1.1041
 Frc consts  --      6.5253                 6.5740                 6.6756
 IR Inten    --      3.8210                 0.8660                 1.2057

                    115                    116                    117
                      A                      A                      A
 Frequencies --   3206.4452              3211.7262              3222.2270
 Red. masses --      1.0900                 1.0911                 1.0949
 Frc consts  --      6.6026                 6.6313                 6.6982
 IR Inten    --      8.5441                 7.6260                16.4523

                    118                    119                    120
                      A                      A                      A
 Frequencies --   3227.4890              3233.5311              3239.0204
 Red. masses --      1.0909                 1.0961                 1.0939
 Frc consts  --      6.6951                 6.7520                 6.7618
 IR Inten    --      0.5009                 3.1890                 2.8038

 - Thermochemistry -
 -------------------
 Temperature   298.150 Kelvin.  Pressure   1.00000 Atm.
 Atom     1 has atomic number  6 and mass  12.00000

 Molecular mass:   322.13174 amu.
 Principal axes and moments of inertia in atomic units:
                           1         2         3
     Eigenvalues --  3001.93842********************
           X            0.99999   0.00410   0.00161
           Y           -0.00412   0.99989   0.01433
           Z           -0.00155  -0.01434   0.99990
 This molecule is an asymmetric top.
 Rotational symmetry number  1.
 Warning -- assumption of classical behavior for rotation
           may cause significant error
 Rotational temperatures (Kelvin)      0.02885     0.00602     0.00556
 Rotational constants (GHZ):           0.60119     0.12544     0.11584
 Zero-point vibrational energy     888275.6 (Joules/Mol)
                                  212.30298 (Kcal/Mol)
 Warning -- explicit consideration of  34 degrees of freedom as
           vibrations may cause significant error
 Vibrational temperatures:     40.72    48.70    66.38   101.01   140.32
          (Kelvin)            157.52   173.20   207.15   233.71   248.30
                              265.23   290.66   324.53   340.53   361.15
                              383.19   399.59   430.86   462.99   473.72
                              495.30   530.68   553.40   589.63   634.45
                              671.05   695.00   724.82   772.18   789.18
                              808.80   814.09   826.67   856.27   928.22
                              939.72   980.16  1006.69  1081.98  1103.30
                             1121.05  1125.58  1153.11  1155.12  1157.48
                             1188.88  1241.12  1257.64  1302.82  1310.64
                             1387.75  1399.23  1406.44  1407.89  1414.38
                             1466.33  1468.40  1472.00  1503.94  1519.55
                             1536.99  1596.27  1606.63  1654.88  1662.43
                             1670.28  1680.03  1700.95  1705.31  1712.79
                             1755.13  1819.31  1827.83  1844.55  1875.75
                             1924.50  1932.21  1956.15  1997.68  2004.98
                             2029.47  2038.50  2062.35  2088.91  2128.23
                             2134.04  2141.30  2143.37  2152.64  2157.41
                             2168.63  2174.42  2189.83  2194.65  2216.16
                             2259.96  2310.04  2364.35  2397.37  2418.54
                             2422.69  2449.74  4414.61  4420.14  4450.49
                             4518.98  4523.60  4527.59  4551.39  4556.26
                             4557.78  4588.35  4607.57  4609.09  4613.36
                             4620.96  4636.07  4643.64  4652.33  4660.23

 Zero-point correction=                           0.338326 (Hartree/Particle)
 Thermal correction to Energy=                    0.358910
 Thermal correction to Enthalpy=                  0.359854
 Thermal correction to Gibbs Free Energy=         0.288967
 Sum of electronic and zero-point Energies=          -1069.512479
 Sum of electronic and thermal Energies=             -1069.491896
 Sum of electronic and thermal Enthalpies=           -1069.490952
 Sum of electronic and thermal Free Energies=        -1069.561839

                     E (Thermal)             CV                S
                      KCal/Mol        Cal/Mol-Kelvin    Cal/Mol-Kelvin
 Total                  225.219             80.835            149.195
 Electronic               0.000              0.000              0.000
 Translational            0.889              2.981             43.205
 Rotational               0.889              2.981             34.863
 Vibrational            223.442             74.874             71.126
 Vibration     1          0.593              1.984              5.945
 Vibration     2          0.594              1.983              5.590
 Vibration     3          0.595              1.979              4.977
 Vibration     4          0.598              1.968              4.148
 Vibration     5          0.603              1.951              3.503
 Vibration     6          0.606              1.942              3.278
 Vibration     7          0.609              1.932              3.094
 Vibration     8          0.616              1.909              2.750
 Vibration     9          0.623              1.889              2.521
 Vibration    10          0.626              1.876              2.407
 Vibration    11          0.631              1.861              2.284
 Vibration    12          0.639              1.837              2.115
 Vibration    13          0.650              1.802              1.914
 Vibration    14          0.656              1.785              1.828
 Vibration    15          0.663              1.761              1.723
 Vibration    16          0.672              1.735              1.620
 Vibration    17          0.679              1.715              1.548
 Vibration    18          0.692              1.675              1.420
 Vibration    19          0.707              1.632              1.301
 Vibration    20          0.712              1.617              1.264
 Vibration    21          0.723              1.587              1.192
 Vibration    22          0.741              1.536              1.085
 Vibration    23          0.754              1.503              1.021
 Vibration    24          0.774              1.449              0.927
 Vibration    25          0.801              1.381              0.824
 Vibration    26          0.824              1.325              0.748
 Vibration    27          0.839              1.288              0.702
 Vibration    28          0.859              1.242              0.649
 Vibration    29          0.892              1.169              0.572
 Vibration    30          0.904              1.143              0.547
 Vibration    31          0.918              1.113              0.520
 Vibration    32          0.922              1.105              0.512
 Vibration    33          0.931              1.086              0.496
 Vibration    34          0.953              1.042              0.458

 Optimization completed.
    -- Stationary point found.

 1\1\GINC-N042\Freq\RCAM-B3LYP\def2TZVP\C19H18N2O3\ARTD\09-Mar-2024\0\\
 #P Geom=AllCheck Guess=TCheck SCRF=Check GenChk RCAM-B3LYP/def2TZVP Fr
 eq\\TITLE\\0,1\C,-2.4051656091,2.2987242007,0.5968036158\C,-1.58049794
 85,1.2193583506,0.3132255264\C,-0.2646076146,1.4096115338,-0.088524194
 9\C,0.169227121,2.7123305957,-0.1900898954\C,-0.6362937402,3.802558343
 5,0.0827817111\C,-1.9381177467,3.6037409077,0.4853512048\H,-3.42619913
 98,2.1218404542,0.9057408721\H,-1.965877085,0.2131408511,0.4023301838\
 H,-2.5890967135,4.438868113,0.7072992201\H,0.3743114996,0.5692327884,-

 Normal termination of Gaussian 16 at Sat Mar  9 03:54:23 2024.
