 Gaussian 16, Revision A.03,
 Gaussian 16:  ES64L-G16RevA.03 25-Dec-2016

 ----------------------------------------------------------------------
 #p M062X/def2TZVP SCRF(PCM,Solvent=acetone) TD(Singlets,NStates=5, roo
 t=1) integral=ultrafine opt guess=(read) geom=(allcheck) gfinput
 ----------------------------------------------------------------------

 Structure from the checkpoint file:  "mc1_s1_m062x.chk"
 -----
 TITLE
 -----
 Charge =  0 Multiplicity = 1

 SCF Done:  E(RM062X) =  -1069.90222270     A.U. after    1 cycles
 Total Energy, E(TD-HF/TD-DFT) =  -1069.79728361
 SCF Done:  E(RM062X) =  -1069.88103432     A.U. after   16 cycles
 Total Energy, E(TD-HF/TD-DFT) =  -1069.79724731
 SCF Done:  E(RM062X) =  -1069.89457317     A.U. after   15 cycles
 Total Energy, E(TD-HF/TD-DFT) =  -1069.80617551
 SCF Done:  E(RM062X) =  -1069.89167059     A.U. after   14 cycles
 Total Energy, E(TD-HF/TD-DFT) =  -1069.80884567
 SCF Done:  E(RM062X) =  -1069.88187391     A.U. after   15 cycles
 Total Energy, E(TD-HF/TD-DFT) =  -1069.80809557
 SCF Done:  E(RM062X) =  -1069.87815774     A.U. after   15 cycles
 Total Energy, E(TD-HF/TD-DFT) =  -1069.80871320
 SCF Done:  E(RM062X) =  -1069.88748214     A.U. after   12 cycles
 Total Energy, E(TD-HF/TD-DFT) =  -1069.81075672
 SCF Done:  E(RM062X) =  -1069.88334656     A.U. after   14 cycles
 Total Energy, E(TD-HF/TD-DFT) =  -1069.81278528
 SCF Done:  E(RM062X) =  -1069.87954466     A.U. after   15 cycles
 Total Energy, E(TD-HF/TD-DFT) =  -1069.81393790
 SCF Done:  E(RM062X) =  -1069.87953062     A.U. after   14 cycles
 Total Energy, E(TD-HF/TD-DFT) =  -1069.81455805
 SCF Done:  E(RM062X) =  -1069.87811861     A.U. after   15 cycles
 Total Energy, E(TD-HF/TD-DFT) =  -1069.81467260
 SCF Done:  E(RM062X) =  -1069.87623005     A.U. after   14 cycles
 Total Energy, E(TD-HF/TD-DFT) =  -1069.81480482
 SCF Done:  E(RM062X) =  -1069.87762851     A.U. after   14 cycles
 Total Energy, E(TD-HF/TD-DFT) =  -1069.81501146
 SCF Done:  E(RM062X) =  -1069.87658129     A.U. after   14 cycles
 Total Energy, E(TD-HF/TD-DFT) =  -1069.81505618
 SCF Done:  E(RM062X) =  -1069.87691668     A.U. after   12 cycles
 Total Energy, E(TD-HF/TD-DFT) =  -1069.81506782
 SCF Done:  E(RM062X) =  -1069.87687214     A.U. after   11 cycles
 Total Energy, E(TD-HF/TD-DFT) =  -1069.81506990
 SCF Done:  E(RM062X) =  -1069.87686968     A.U. after    8 cycles

 Excitation energies and oscillator strengths:

 Excited State   1:      Singlet-A      1.6817 eV  737.28 nm  f=0.1452  <S**2>=0.000
      85 -> 86         0.69619
 This state for optimization and/or second-order correction.
 Total Energy, E(TD-HF/TD-DFT) =  -1069.81507015
 Copying the excited state density for this state as the 1-particle RhoCI density.

 Excited State   2:      Singlet-A      3.1860 eV  389.16 nm  f=0.0889  <S**2>=0.000
      81 -> 86         0.13215
      83 -> 86        -0.61621
      83 -> 87         0.15522
      85 -> 87         0.18756

 Excited State   3:      Singlet-A      3.3367 eV  371.58 nm  f=0.3163  <S**2>=0.000
      84 -> 86        -0.69295

 Excited State   4:      Singlet-A      3.5592 eV  348.35 nm  f=0.5676  <S**2>=0.000
      83 -> 86        -0.17546
      85 -> 87        -0.66235

 Excited State   5:      Singlet-A      4.2796 eV  289.71 nm  f=0.0420  <S**2>=0.000
      79 -> 87        -0.19364
      81 -> 86         0.48009
      82 -> 86        -0.31221
      83 -> 86         0.18752
      85 -> 89         0.16740
      85 -> 90        -0.11309

 Optimization completed.
    -- Stationary point found.

                         Standard orientation:
 ---------------------------------------------------------------------
 Center     Atomic      Atomic             Coordinates (Angstroms)
 Number     Number       Type             X           Y           Z
 ---------------------------------------------------------------------
      1          6           0        3.951772   -2.504038    0.266359
      2          6           0        2.817219   -3.103814   -0.272606
      3          6           0        1.724184   -2.344979   -0.678737
      4          6           0        1.810782   -0.970958   -0.512612
      5          6           0        2.946495   -0.353043    0.009970
      6          6           0        4.025547   -1.117202    0.402711
      7          1           0        4.785460   -3.119387    0.577092
      8          1           0        2.780335   -4.180435   -0.374995
      9          1           0        4.917664   -0.652019    0.804871
     10          1           0        0.839344   -2.812028   -1.090572
     11          6           0        2.761282    1.144776   -0.041824
     12          6           0        1.300820    1.231418   -0.449362
     13          7           0        0.853340   -0.004968   -0.832149
     14          6           0        3.062587    1.838281    1.285441
     15          1           0        2.438534    1.432979    2.079024
     16          1           0        2.874582    2.910111    1.204657
     17          1           0        4.113617    1.697612    1.543110
     18          6           0        3.639650    1.743853   -1.160311
     19          1           0        3.439182    1.258692   -2.115883
     20          1           0        4.692687    1.603196   -0.910912
     21          1           0        3.446200    2.813021   -1.259133
     22          6           0        0.524799    2.395609   -0.404915
     23          6           0       -1.578986    1.310905    0.290594
     24          6           0       -0.934669    0.437204    1.303919
     25          8           0        0.053598    0.818161    1.943451
     26          6           0       -1.540880   -0.854406    1.537980
     27          6           0       -2.764950   -1.164353    1.030462
     28          6           0       -3.429139   -0.212989    0.223519
     29          6           0       -2.867867    0.991648   -0.140785
     30          6           0       -0.192694   -0.300128   -1.802173
     31          1           0       -0.617003    0.630535   -2.164882
     32          1           0       -0.982609   -0.909581   -1.360569
     33          1           0        0.251330   -0.845146   -2.637084
     34          6           0       -0.853037    2.421789   -0.227024
     35          1           0        1.056895    3.337415   -0.499422
     36          1           0       -1.406357    3.309781   -0.513455
     37          1           0       -3.395826    1.648287   -0.818262
     38          1           0       -3.249233   -2.104736    1.246940
     39          1           0       -1.024015   -1.526536    2.210112
     40          7           0       -4.757643   -0.541537   -0.280386
     41          8           0       -5.349276    0.296388   -0.931594
     42          8           0       -5.210341   -1.640004   -0.023925
 ---------------------------------------------------------------------

 The electronic state is 1-A.
 Alpha  occ. eigenvalues --  -19.65359 -19.65284 -19.58254 -14.99096 -14.84493
 Alpha  occ. eigenvalues --  -10.64954 -10.61162 -10.59960 -10.59151 -10.59102
 Alpha  occ. eigenvalues --  -10.58761 -10.58203 -10.56907 -10.56461 -10.56230
 Alpha  occ. eigenvalues --  -10.56173 -10.56143 -10.55827 -10.55587 -10.55333
 Alpha  occ. eigenvalues --  -10.55041 -10.54964 -10.53704 -10.53690  -1.36513
 Alpha  occ. eigenvalues --   -1.17648  -1.14360  -1.13216  -0.98364  -0.97845
 Alpha  occ. eigenvalues --   -0.95860  -0.92762  -0.87677  -0.87013  -0.86317
 Alpha  occ. eigenvalues --   -0.85587  -0.82589  -0.79601  -0.77281  -0.75155
 Alpha  occ. eigenvalues --   -0.73811  -0.71291  -0.69252  -0.67671  -0.66456
 Alpha  occ. eigenvalues --   -0.65377  -0.62615  -0.62469  -0.60703  -0.60000
 Alpha  occ. eigenvalues --   -0.59308  -0.57664  -0.55948  -0.55887  -0.54682
 Alpha  occ. eigenvalues --   -0.53408  -0.52719  -0.52649  -0.52009  -0.51104
 Alpha  occ. eigenvalues --   -0.50975  -0.50443  -0.48890  -0.47760  -0.47402
 Alpha  occ. eigenvalues --   -0.47072  -0.46081  -0.45819  -0.45225  -0.44036
 Alpha  occ. eigenvalues --   -0.43692  -0.42788  -0.42347  -0.41800  -0.40144
 Alpha  occ. eigenvalues --   -0.39250  -0.39076  -0.38415  -0.38005  -0.36904
 Alpha  occ. eigenvalues --   -0.33235  -0.32303  -0.31233  -0.29275  -0.24453
 Alpha virt. eigenvalues --   -0.09016  -0.03544   0.00420   0.00547   0.02260
 Alpha virt. eigenvalues --    0.05306   0.06380   0.07594   0.08077   0.08608
 Alpha virt. eigenvalues --    0.08905   0.10016   0.10307   0.10804   0.11696

 Mulliken charges:
               1
     1  C   -0.161280
     2  C   -0.154456
     3  C   -0.210027
     4  C    0.136030
     5  C   -0.044044
     6  C   -0.183190
     7  H    0.169486
     8  H    0.170740
     9  H    0.176764
    10  H    0.191227
    11  C    0.052411
    12  C    0.116000
    13  N   -0.009493
    14  C   -0.437483
    15  H    0.180477
    16  H    0.169569
    17  H    0.169228
    18  C   -0.407545
    19  H    0.171834
    20  H    0.178371
    21  H    0.173894
    22  C   -0.202066
    23  C   -0.073624
    24  C    0.271568
    25  O   -0.467933
    26  C   -0.304013
    27  C   -0.136963
    28  C   -0.026230
    29  C   -0.147035
    30  C   -0.416382
    31  H    0.206223
    32  H    0.214283
    33  H    0.205823
    34  C   -0.161282
    35  H    0.189619
    36  H    0.182675
    37  H    0.190037
    38  H    0.189146
    39  H    0.159286
    40  N    0.495669
    41  O   -0.408626
    42  O   -0.408686
 Sum of Mulliken charges =  -0.00000

 Dipole moment (field-independent basis, Debye):
    X=             12.6918    Y=              1.7224    Z=             -5.2524  Tot=             13.8432
 Quadrupole moment (field-independent basis, Debye-Ang):
   XX=           -173.0608   YY=           -123.0849   ZZ=           -145.5459
   XY=             -6.4778   XZ=             -4.9613   YZ=             -5.5413

 Normal termination of Gaussian 16 at Sun Mar 10 11:11:44 2024.
