 Gaussian 16, Revision A.03,
 Gaussian 16:  ES64L-G16RevA.03 25-Dec-2016

 ----------------------------------------------------------------------
 #P M062X/def2TZVP opt freq=(noraman) scrf=(pcm,solvent=acetone) gfinpu
 t integral=ultrafine
 ----------------------------------------------------------------------

 -----
 TITLE
 -----
 Symbolic Z-matrix:
 Charge =  0 Multiplicity = 1

 SCF Done:  E(RM062X) =  -1069.84877685     A.U. after   15 cycles
 SCF Done:  E(RM062X) =  -1069.86701763     A.U. after   15 cycles
 SCF Done:  E(RM062X) =  -1069.86311137     A.U. after   16 cycles
 SCF Done:  E(RM062X) =  -1069.87013303     A.U. after   15 cycles
 SCF Done:  E(RM062X) =  -1069.87826105     A.U. after   15 cycles
 SCF Done:  E(RM062X) =  -1069.88500717     A.U. after   14 cycles
 SCF Done:  E(RM062X) =  -1069.89394842     A.U. after   14 cycles
 SCF Done:  E(RM062X) =  -1069.89216965     A.U. after   15 cycles
 SCF Done:  E(RM062X) =  -1069.89655105     A.U. after   14 cycles
 SCF Done:  E(RM062X) =  -1069.90034595     A.U. after   14 cycles
 SCF Done:  E(RM062X) =  -1069.90119370     A.U. after   13 cycles
 SCF Done:  E(RM062X) =  -1069.90154080     A.U. after   12 cycles
 SCF Done:  E(RM062X) =  -1069.90214500     A.U. after   12 cycles
 SCF Done:  E(RM062X) =  -1069.90220476     A.U. after   12 cycles
 SCF Done:  E(RM062X) =  -1069.90221138     A.U. after    9 cycles
 SCF Done:  E(RM062X) =  -1069.90222000     A.U. after   12 cycles
 SCF Done:  E(RM062X) =  -1069.90222226     A.U. after    9 cycles
 SCF Done:  E(RM062X) =  -1069.90222268     A.U. after    9 cycles
 SCF Done:  E(RM062X) =  -1069.90222270     A.U. after    7 cycles
 Optimization completed.
    -- Stationary point found.
 Normal termination of Gaussian 16 at Fri Mar  8 23:47:15 2024.

 --------------------------------------------------------------------
 #P Geom=AllCheck Guess=TCheck SCRF=Check GenChk RM062X/def2TZVP Freq
 --------------------------------------------------------------------

 Structure from the checkpoint file:  "mc1_gs_m062x.chk"
 -----
 TITLE
 -----
 Charge =  0 Multiplicity = 1

                         Standard orientation:
 ---------------------------------------------------------------------
 Center     Atomic      Atomic             Coordinates (Angstroms)
 Number     Number       Type             X           Y           Z
 ---------------------------------------------------------------------
      1          6           0        5.028201   -1.691580    0.271422
      2          6           0        4.196673   -2.544119   -0.447513
      3          6           0        2.947498   -2.122984   -0.895261
      4          6           0        2.586749   -0.827329   -0.584876
      5          6           0        3.395367    0.037548    0.135969
      6          6           0        4.634778   -0.387890    0.569546
      7          1           0        5.993048   -2.047851    0.606551
      8          1           0        4.522001   -3.553078   -0.662040
      9          1           0        5.286542    0.269749    1.131252
     10          1           0        2.297288   -2.787388   -1.447240
     11          6           0        2.683287    1.355255    0.283072
     12          6           0        1.367081    1.054326   -0.404713
     13          7           0        1.387523   -0.146168   -0.922239
     14          6           0        2.449322    1.741807    1.748351
     15          1           0        1.900720    0.958741    2.267892
     16          1           0        1.877226    2.668665    1.802846
     17          1           0        3.413376    1.897734    2.233078
     18          6           0        3.426901    2.477807   -0.461270
     19          1           0        3.553000    2.237552   -1.517003
     20          1           0        4.412322    2.600300   -0.011980
     21          1           0        2.890782    3.422148   -0.369642
     22          6           0        0.316174    2.017316   -0.536509
     23          6           0       -1.810883    0.737966    0.049710
     24          6           0       -1.282023   -0.293570    0.936165
     25          8           0       -0.098998   -0.307975    1.333075
     26          6           0       -2.223087   -1.310730    1.356677
     27          6           0       -3.526746   -1.307153    0.976202
     28          6           0       -4.007831   -0.264821    0.155202
     29          6           0       -3.165518    0.740090   -0.275065
     30          6           0        0.361797   -0.769070   -1.735609
     31          1           0       -0.288363    0.000018   -2.139496
     32          1           0       -0.219123   -1.461447   -1.125763
     33          1           0        0.847169   -1.308426   -2.545834
     34          6           0       -1.022747    1.846343   -0.426463
     35          1           0        0.670954    3.025101   -0.722704
     36          1           0       -1.610102    2.721490   -0.690410
     37          1           0       -3.567939    1.534382   -0.890209
     38          1           0       -4.207033   -2.082385    1.299449
     39          1           0       -1.836172   -2.091053    1.999384
     40          7           0       -5.387202   -0.241971   -0.227011
     41          8           0       -5.793507    0.673136   -0.929238
     42          8           0       -6.115983   -1.142982    0.163212
 ---------------------------------------------------------------------

 SCF Done:  E(RM062X) =  -1069.90222270     A.U. after    1 cycles

 The electronic state is 1-A.
 Alpha  occ. eigenvalues --  -19.65217 -19.65126 -19.58308 -14.99045 -14.85246
 Alpha  occ. eigenvalues --  -10.64398 -10.60839 -10.60242 -10.59000 -10.58685
 Alpha  occ. eigenvalues --  -10.58101 -10.57732 -10.56595 -10.56551 -10.56466
 Alpha  occ. eigenvalues --  -10.56083 -10.56054 -10.55800 -10.55798 -10.55564
 Alpha  occ. eigenvalues --  -10.55049 -10.54755 -10.53906 -10.53583  -1.35980
 Alpha  occ. eigenvalues --   -1.16930  -1.15415  -1.12886  -0.98736  -0.98123
 Alpha  occ. eigenvalues --   -0.95817  -0.92547  -0.88348  -0.87174  -0.86413
 Alpha  occ. eigenvalues --   -0.85919  -0.83356  -0.79711  -0.76906  -0.75567
 Alpha  occ. eigenvalues --   -0.73718  -0.71789  -0.69548  -0.67880  -0.66606
 Alpha  occ. eigenvalues --   -0.65321  -0.62645  -0.62225  -0.60626  -0.60167
 Alpha  occ. eigenvalues --   -0.59021  -0.58256  -0.55936  -0.55691  -0.54463
 Alpha  occ. eigenvalues --   -0.53573  -0.53000  -0.52498  -0.52132  -0.51417
 Alpha  occ. eigenvalues --   -0.50628  -0.50146  -0.49160  -0.47635  -0.47212
 Alpha  occ. eigenvalues --   -0.46756  -0.46022  -0.45663  -0.45108  -0.43775
 Alpha  occ. eigenvalues --   -0.43525  -0.42579  -0.42226  -0.41262  -0.40431
 Alpha  occ. eigenvalues --   -0.40216  -0.39327  -0.38232  -0.37794  -0.37575
 Alpha  occ. eigenvalues --   -0.33055  -0.32456  -0.31081  -0.29695  -0.25431
 Alpha virt. eigenvalues --   -0.06461  -0.03727   0.00054   0.00357   0.02925
 Alpha virt. eigenvalues --    0.05311   0.06099   0.07701   0.08385   0.08881
 Alpha virt. eigenvalues --    0.09264   0.10055   0.10652   0.11213   0.11586

 Mulliken charges:
               1
     1  C   -0.152371
     2  C   -0.167165
     3  C   -0.190722
     4  C    0.149116
     5  C   -0.063904
     6  C   -0.198218
     7  H    0.170178
     8  H    0.171936
     9  H    0.177681
    10  H    0.197190
    11  C    0.118501
    12  C    0.090760
    13  N    0.077025
    14  C   -0.432511
    15  H    0.177295
    16  H    0.171980
    17  H    0.169868
    18  C   -0.422599
    19  H    0.176373
    20  H    0.176255
    21  H    0.171631
    22  C   -0.265325
    23  C   -0.010672
    24  C    0.193855
    25  O   -0.492762
    26  C   -0.239395
    27  C   -0.161591
    28  C   -0.048981
    29  C   -0.129611
    30  C   -0.417627
    31  H    0.206259
    32  H    0.221944
    33  H    0.189932
    34  C   -0.152926
    35  H    0.180535
    36  H    0.166367
    37  H    0.193254
    38  H    0.186360
    39  H    0.152488
    40  N    0.489120
    41  O   -0.415841
    42  O   -0.413684
 Sum of Mulliken charges =  -0.00000

 Dipole moment (field-independent basis, Debye):
    X=             15.8452    Y=              2.0352    Z=             -3.7608  Tot=             16.4120
 Quadrupole moment (field-independent basis, Debye-Ang):
   XX=           -185.4488   YY=           -122.5950   ZZ=           -140.1856
   XY=             -2.3945   XZ=             -3.8126   YZ=              3.7412

  Exact polarizability: 572.622   6.277 341.859  25.665 -14.873 242.395
 Approx polarizability: 454.037   6.850 333.935  31.466 -15.904 244.960

                      1                      2                      3
                      A                      A                      A
 Frequencies --     30.0322                37.3734                49.7825
 Red. masses --      7.2421                 5.9330                 6.3803
 Frc consts  --      0.0038                 0.0049                 0.0093
 IR Inten    --      1.0983                 0.3904                 0.1545

                      4                      5                      6
                      A                      A                      A
 Frequencies --     72.8741                96.0517               109.3762
 Red. masses --      6.4693                 3.8606                 5.0406
 Frc consts  --      0.0202                 0.0210                 0.0355
 IR Inten    --      0.6483                 2.4886                10.9789

                      7                      8                      9
                      A                      A                      A
 Frequencies --    121.3280               144.4851               162.4025
 Red. masses --      4.6852                 6.0118                 4.0151
 Frc consts  --      0.0406                 0.0739                 0.0624
 IR Inten    --      1.7986                 3.7203                10.3931

                     10                     11                     12
                      A                      A                      A
 Frequencies --    178.8185               190.6282               220.7418
 Red. masses --      2.9844                 2.9134                 1.6489
 Frc consts  --      0.0562                 0.0624                 0.0473
 IR Inten    --      0.8272                15.0801                32.3845

                     13                     14                     15
                      A                      A                      A
 Frequencies --    226.9243               240.9117               254.0051
 Red. masses --      2.8593                 1.3893                 1.7453
 Frc consts  --      0.0868                 0.0475                 0.0663
 IR Inten    --      0.6500                 2.0817                 0.7447

                     16                     17                     18
                      A                      A                      A
 Frequencies --    270.1141               286.1225               298.8670
 Red. masses --      3.6652                 1.2180                 5.0744
 Frc consts  --      0.1576                 0.0587                 0.2670
 IR Inten    --     12.2933                 1.0194                11.1138

                     19                     20                     21
                      A                      A                      A
 Frequencies --    325.3500               335.1189               340.3862
 Red. masses --      2.5478                 2.3308                 3.6783
 Frc consts  --      0.1589                 0.1542                 0.2511
 IR Inten    --      2.0022                 0.5856                 0.0988

                     22                     23                     24
                      A                      A                      A
 Frequencies --    367.3118               383.1494               406.3236
 Red. masses --      6.9016                 4.9334                 3.6590
 Frc consts  --      0.5486                 0.4267                 0.3559
 IR Inten    --      2.1442                79.6668                78.2194

                     25                     26                     27
                      A                      A                      A
 Frequencies --    439.4880               460.6079               478.5015
 Red. masses --      6.2145                 3.6513                 5.3059
 Frc consts  --      0.7072                 0.4564                 0.7158
 IR Inten    --      6.5797                 6.4383                23.4527

                     28                     29                     30
                      A                      A                      A
 Frequencies --    500.0256               532.2432               542.6265
 Red. masses --      3.0343                 5.4816                 3.4302
 Frc consts  --      0.4470                 0.9149                 0.5951
 IR Inten    --     19.0997                20.4419                 1.6118

                     31                     32                     33
                      A                      A                      A
 Frequencies --    556.8946               561.1016               570.1390
 Red. masses --      5.1704                 5.3310                 4.0267
 Frc consts  --      0.9447                 0.9889                 0.7712
 IR Inten    --      8.3756                11.1563                 1.8519

                     34                     35                     36
                      A                      A                      A
 Frequencies --    589.5500               638.0960               647.7235
 Red. masses --      3.5796                 4.1688                 5.8808
 Frc consts  --      0.7330                 1.0001                 1.4537
 IR Inten    --      2.0529                 1.6785                19.5459

                     37                     38                     39
                      A                      A                      A
 Frequencies --    680.2240               694.0197               749.5352
 Red. masses --      4.0578                 3.8182                 2.6188
 Frc consts  --      1.1062                 1.0836                 0.8668
 IR Inten    --    135.7559                27.2072                25.7587

                     40                     41                     42
                      A                      A                      A
 Frequencies --    763.3040               777.2366               780.5172
 Red. masses --      2.9644                 2.2859                 1.8859
 Frc consts  --      1.0176                 0.8136                 0.6769
 IR Inten    --     42.1907                53.5566                27.0118

                     43                     44                     45
                      A                      A                      A
 Frequencies --    793.4772               798.5010               805.8698
 Red. masses --      3.4920                 3.3227                 7.5585
 Frc consts  --      1.2954                 1.2482                 2.8921
 IR Inten    --      8.5490                13.6435                34.5802

                     46                     47                     48
                      A                      A                      A
 Frequencies --    822.5815               859.7846               867.2061
 Red. masses --      2.3178                 6.4598                 2.4614
 Frc consts  --      0.9240                 2.8135                 1.0906
 IR Inten    --     75.2994                13.8446                37.6147

                     49                     50                     51
                      A                      A                      A
 Frequencies --    901.5921               907.9994               959.4804
 Red. masses --      1.4308                 3.6551                 3.8511
 Frc consts  --      0.6853                 1.7755                 2.0888
 IR Inten    --      0.1126                20.8777                54.6529

                     52                     53                     54
                      A                      A                      A
 Frequencies --    965.9527               968.1926               973.6350
 Red. masses --      2.2129                 1.6936                 1.4245
 Frc consts  --      1.2165                 0.9354                 0.7956
 IR Inten    --    204.9651                37.0878                 1.6520

                     55                     56                     57
                      A                      A                      A
 Frequencies --    979.1101              1012.7058              1014.4379
 Red. masses --      1.3728                 1.3562                 1.4427
 Frc consts  --      0.7754                 0.8195                 0.8747
 IR Inten    --      4.0650                75.0356               155.7693

                     58                     59                     60
                      A                      A                      A
 Frequencies --   1027.1394              1037.0856              1050.7177
 Red. masses --      1.3279                 1.3427                 2.4355
 Frc consts  --      0.8254                 0.8509                 1.5842
 IR Inten    --      0.0942                 0.6486                46.0141

                     61                     62                     63
                      A                      A                      A
 Frequencies --   1063.7255              1095.6657              1113.9050
 Red. masses --      2.3032                 2.4725                 1.7782
 Frc consts  --      1.5355                 1.7488                 1.3000
 IR Inten    --     37.2701                 2.6817               556.1571

                     64                     65                     66
                      A                      A                      A
 Frequencies --   1142.1657              1148.6812              1153.7561
 Red. masses --      1.4433                 1.4727                 1.4207
 Frc consts  --      1.1093                 1.1449                 1.1143
 IR Inten    --     14.1059                 2.6012                18.4908

                     67                     68                     69
                      A                      A                      A
 Frequencies --   1161.8748              1175.0134              1175.3057
 Red. masses --      1.6406                 3.5269                 1.5413
 Frc consts  --      1.3049                 2.8690                 1.2544
 IR Inten    --    123.5114                23.7886                87.4594

                     70                     71                     72
                      A                      A                      A
 Frequencies --   1181.5828              1213.2261              1258.4770
 Red. masses --      1.8762                 2.8871                 2.3049
 Frc consts  --      1.5433                 2.5037                 2.1508
 IR Inten    --    159.5688                34.8854                63.8458

                     73                     74                     75
                      A                      A                      A
 Frequencies --   1262.7707              1273.8016              1294.7744
 Red. masses --      1.5690                 1.5872                 3.2132
 Frc consts  --      1.4741                 1.5174                 3.1737
 IR Inten    --    410.9600                62.1317                16.9503

                     76                     77                     78
                      A                      A                      A
 Frequencies --   1327.3714              1346.9856              1355.6300
 Red. masses --      1.9885                 3.1500                 5.4072
 Frc consts  --      2.0642                 3.3674                 5.8547
 IR Inten    --      8.8709               109.7068              3211.1214

                     79                     80                     81
                      A                      A                      A
 Frequencies --   1381.6497              1391.0180              1393.5912
 Red. masses --      3.6644                 2.5073                 1.2141
 Frc consts  --      4.1214                 2.8584                 1.3893
 IR Inten    --     31.8885               152.4272                 6.3463

                     82                     83                     84
                      A                      A                      A
 Frequencies --   1409.6297              1418.3118              1437.3974
 Red. masses --      3.0588                 1.2206                 1.2496
 Frc consts  --      3.5811                 1.4467                 1.5212
 IR Inten    --    110.7085                 3.2989                44.8010

                     85                     86                     87
                      A                      A                      A
 Frequencies --   1472.1933              1476.2178              1479.4336
 Red. masses --      1.2792                 1.5187                 1.0741
 Frc consts  --      1.6334                 1.9500                 1.3852
 IR Inten    --     11.9572                38.7647                21.6975

                     88                     89                     90
                      A                      A                      A
 Frequencies --   1482.1265              1490.2606              1493.0713
 Red. masses --      1.1620                 1.1417                 1.1089
 Frc consts  --      1.5039                 1.4939                 1.4565
 IR Inten    --     28.8306                75.6655                 5.8246

                     91                     92                     93
                      A                      A                      A
 Frequencies --   1499.3251              1505.3084              1511.4990
 Red. masses --      1.1719                 2.4638                 2.3104
 Frc consts  --      1.5521                 3.2893                 3.1100
 IR Inten    --     39.7432               165.5532                76.2275

                     94                     95                     96
                      A                      A                      A
 Frequencies --   1527.8022              1531.0736              1579.4029
 Red. masses --      4.0749                 3.3505                 9.1385
 Frc consts  --      5.6041                 4.6275                13.4311
 IR Inten    --    215.1369                68.7996               468.6868

                     97                     98                     99
                      A                      A                      A
 Frequencies --   1609.9268              1644.6096              1663.9977
 Red. masses --      8.4777                 7.2972                 6.8149
 Frc consts  --     12.9461                11.6287                11.1178
 IR Inten    --    409.1067               576.8730               121.2523

                    100                    101                    102
                      A                      A                      A
 Frequencies --   1675.9842              1678.5009              1694.9368
 Red. masses --      7.3206                 6.9133                 7.8386
 Frc consts  --     12.1154                11.4756                13.2677
 IR Inten    --    377.6334               703.4287               109.0864

                    103                    104                    105
                      A                      A                      A
 Frequencies --   3069.3587              3070.9062              3088.5567
 Red. masses --      1.0334                 1.0344                 1.0355
 Frc consts  --      5.7361                 5.7473                 5.8199
 IR Inten    --     18.0160                34.7770                 7.4698

                    106                    107                    108
                      A                      A                      A
 Frequencies --   3147.1989              3152.0191              3152.9881
 Red. masses --      1.1036                 1.1035                 1.1042
 Frc consts  --      6.4401                 6.4598                 6.4673
 IR Inten    --     13.8803                18.6063                22.7984

                    109                    110                    111
                      A                      A                      A
 Frequencies --   3165.0290              3166.6520              3171.1251
 Red. masses --      1.0863                 1.1027                 1.1034
 Frc consts  --      6.4112                 6.5150                 6.5377
 IR Inten    --     10.2469                 4.0734                 5.6164

                    112                    113                    114
                      A                      A                      A
 Frequencies --   3192.1183              3207.4852              3208.6090
 Red. masses --      1.0889                 1.1040                 1.0884
 Frc consts  --      6.5375                 6.6917                 6.6021
 IR Inten    --      2.8755                 1.3633                 1.4680

                    115                    116                    117
                      A                      A                      A
 Frequencies --   3214.2676              3219.7869              3223.5921
 Red. masses --      1.0896                 1.0909                 1.0909
 Frc consts  --      6.6327                 6.6630                 6.6793
 IR Inten    --      5.4619                 4.4963                 0.9181

                    118                    119                    120
                      A                      A                      A
 Frequencies --   3229.6422              3240.0182              3241.8786
 Red. masses --      1.0937                 1.0968                 1.0943
 Frc consts  --      6.7216                 6.7838                 6.7762
 IR Inten    --     10.1576                 2.7658                 2.5008

 - Thermochemistry -
 -------------------
 Temperature   298.150 Kelvin.  Pressure   1.00000 Atm.
 Atom     1 has atomic number  6 and mass  12.00000

 Molecular mass:   322.13174 amu.
 Principal axes and moments of inertia in atomic units:
                           1         2         3
     Eigenvalues --  3009.84321********************
           X            0.99999   0.00429   0.00158
           Y           -0.00431   0.99990   0.01310
           Z           -0.00153  -0.01311   0.99991
 This molecule is an asymmetric top.
 Rotational symmetry number  1.
 Warning -- assumption of classical behavior for rotation
           may cause significant error
 Rotational temperatures (Kelvin)      0.02878     0.00604     0.00556
 Rotational constants (GHZ):           0.59961     0.12592     0.11578
 Zero-point vibrational energy     886486.7 (Joules/Mol)
                                  211.87539 (Kcal/Mol)
 Warning -- explicit consideration of  34 degrees of freedom as
           vibrations may cause significant error
 Vibrational temperatures:     43.21    53.77    71.63   104.85   138.20
          (Kelvin)            157.37   174.56   207.88   233.66   257.28
                              274.27   317.60   326.49   346.62   365.46
                              388.63   411.67   430.00   468.11   482.16
                              489.74   528.48   551.27   584.61   632.33
                              662.71   688.46   719.43   765.78   780.72
                              801.25   807.30   820.30   848.23   918.08
                              931.93   978.69   998.54  1078.41  1098.22
                             1118.27  1122.99  1141.64  1148.86  1159.47
                             1183.51  1237.04  1247.72  1297.19  1306.41
                             1380.48  1389.79  1393.01  1400.84  1408.72
                             1457.06  1459.55  1477.82  1492.13  1511.75
                             1530.46  1576.42  1602.66  1643.32  1652.70
                             1660.00  1671.68  1690.58  1691.00  1700.03
                             1745.56  1810.67  1816.85  1832.72  1862.89
                             1909.79  1938.01  1950.45  1987.89  2001.36
                             2005.07  2028.14  2040.63  2068.09  2118.16
                             2123.95  2128.58  2132.45  2144.15  2148.20
                             2157.19  2165.80  2174.71  2198.17  2202.87
                             2272.41  2316.33  2366.23  2394.12  2411.37
                             2414.99  2438.64  4416.12  4418.35  4443.74
                             4528.12  4535.05  4536.45  4553.77  4556.11
                             4562.54  4592.75  4614.86  4616.47  4624.61
                             4632.56  4638.03  4646.73  4661.66  4664.34

 Zero-point correction=                           0.337645 (Hartree/Particle)
 Thermal correction to Energy=                    0.358198
 Thermal correction to Enthalpy=                  0.359142
 Thermal correction to Gibbs Free Energy=         0.288610
 Sum of electronic and zero-point Energies=          -1069.564578
 Sum of electronic and thermal Energies=             -1069.544025
 Sum of electronic and thermal Enthalpies=           -1069.543081
 Sum of electronic and thermal Free Energies=        -1069.613613

                     E (Thermal)             CV                S
                      KCal/Mol        Cal/Mol-Kelvin    Cal/Mol-Kelvin
 Total                  224.772             81.138            148.446
 Electronic               0.000              0.000              0.000
 Translational            0.889              2.981             43.205
 Rotational               0.889              2.981             34.863
 Vibrational            222.995             75.177             70.378
 Vibration     1          0.594              1.984              5.827
 Vibration     2          0.594              1.982              5.394
 Vibration     3          0.595              1.978              4.826
 Vibration     4          0.599              1.967              4.074
 Vibration     5          0.603              1.952              3.533
 Vibration     6          0.606              1.942              3.280
 Vibration     7          0.609              1.931              3.079
 Vibration     8          0.616              1.909              2.744
 Vibration     9          0.623              1.889              2.522
 Vibration    10          0.629              1.868              2.341
 Vibration    11          0.634              1.853              2.222
 Vibration    12          0.647              1.809              1.953
 Vibration    13          0.651              1.800              1.903
 Vibration    14          0.658              1.778              1.796
 Vibration    15          0.665              1.756              1.703
 Vibration    16          0.674              1.728              1.595
 Vibration    17          0.684              1.699              1.497
 Vibration    18          0.692              1.676              1.423
 Vibration    19          0.709              1.625              1.283
 Vibration    20          0.716              1.605              1.235
 Vibration    21          0.720              1.595              1.210
 Vibration    22          0.740              1.539              1.091
 Vibration    23          0.752              1.506              1.027
 Vibration    24          0.771              1.456              0.940
 Vibration    25          0.800              1.384              0.828
 Vibration    26          0.818              1.337              0.764
 Vibration    27          0.835              1.298              0.714
 Vibration    28          0.855              1.250              0.658
 Vibration    29          0.887              1.179              0.582
 Vibration    30          0.898              1.156              0.560
 Vibration    31          0.912              1.125              0.530
 Vibration    32          0.917              1.115              0.522
 Vibration    33          0.926              1.096              0.504
 Vibration    34          0.947              1.054              0.468

                           ! Non-Optimized Parameters !
 Normal termination of Gaussian 16 at Sat Mar  9 02:08:27 2024.
