 Gaussian 16, Revision A.03,
 Gaussian 16:  ES64L-G16RevA.03 25-Dec-2016

 ----------------------------------------------------------------------
 #P M062X/def2TZVP opt freq=(noraman) scrf=(pcm,solvent=acetonitrile) g
 finput integral=ultrafine
 ----------------------------------------------------------------------

 -----
 TITLE
 -----
 Symbolic Z-matrix:
 Charge =  0 Multiplicity = 1

 SCF Done:  E(RM062X) =  -1069.89834725     A.U. after   14 cycles
 SCF Done:  E(RM062X) =  -1069.91159353     A.U. after   13 cycles
 SCF Done:  E(RM062X) =  -1069.91618851     A.U. after   13 cycles
 SCF Done:  E(RM062X) =  -1069.91102852     A.U. after   13 cycles
 SCF Done:  E(RM062X) =  -1069.91960788     A.U. after   12 cycles
 SCF Done:  E(RM062X) =  -1069.92026853     A.U. after   12 cycles
 SCF Done:  E(RM062X) =  -1069.92040336     A.U. after   11 cycles
 SCF Done:  E(RM062X) =  -1069.92043524     A.U. after   11 cycles
 SCF Done:  E(RM062X) =  -1069.92045002     A.U. after   11 cycles
 SCF Done:  E(RM062X) =  -1069.92046526     A.U. after   11 cycles
 SCF Done:  E(RM062X) =  -1069.92062712     A.U. after   11 cycles
 SCF Done:  E(RM062X) =  -1069.92063267     A.U. after   10 cycles
 SCF Done:  E(RM062X) =  -1069.92063326     A.U. after    9 cycles
 SCF Done:  E(RM062X) =  -1069.92063295     A.U. after    9 cycles
 SCF Done:  E(RM062X) =  -1069.92063289     A.U. after    8 cycles
 SCF Done:  E(RM062X) =  -1069.92063328     A.U. after    9 cycles
 SCF Done:  E(RM062X) =  -1069.92063324     A.U. after    8 cycles
 SCF Done:  E(RM062X) =  -1069.92063328     A.U. after    5 cycles
 SCF Done:  E(RM062X) =  -1069.92063324     A.U. after    8 cycles
 Optimization completed on the basis of negligible forces.
    -- Stationary point found.
 Normal termination of Gaussian 16 at Sun Mar 10 09:26:45 2024.

 --------------------------------------------------------------------
 #P Geom=AllCheck Guess=TCheck SCRF=Check GenChk RM062X/def2TZVP Freq
 --------------------------------------------------------------------

 Structure from the checkpoint file:  "sp1_gs_m062x.chk"
 -----
 TITLE
 -----
 Charge =  0 Multiplicity = 1

                         Standard orientation:
 ---------------------------------------------------------------------
 Center     Atomic      Atomic             Coordinates (Angstroms)
 Number     Number       Type             X           Y           Z
 ---------------------------------------------------------------------
      1          6           0        4.493112   -2.225294   -0.356037
      2          6           0        3.380877   -1.823966   -1.098919
      3          6           0        2.715558   -0.677549   -0.696686
      4          6           0        3.129056    0.045506    0.423508
      5          6           0        4.226152   -0.358552    1.150729
      6          6           0        4.915803   -1.509007    0.754138
      7          1           0        3.052565   -2.398724   -1.954637
      8          1           0        5.775988   -1.844215    1.318053
      9          1           0        5.027630   -3.119353   -0.651030
     10          1           0        4.548637    0.201557    2.020976
     11          7           0        1.598948   -0.069486   -1.278896
     12          6           0        1.006155    0.802382   -0.284841
     13          6           0        2.232589    1.253671    0.578007
     14          6           0        0.728021   -0.852001   -2.131876
     15          1           0       -0.079249   -0.220260   -2.499322
     16          1           0        0.300509   -1.711195   -1.601825
     17          6           0        2.934849    2.462075   -0.057405
     18          1           0        3.137261    2.294876   -1.116404
     19          1           0        3.885776    2.620002    0.451565
     20          1           0        2.337018    3.368229    0.052185
     21          6           0        1.854979    1.582567    2.016152
     22          1           0        1.471824    0.711716    2.542994
     23          1           0        1.096688    2.368329    2.039369
     24          1           0        2.734900    1.950699    2.545645
     25          8           0        0.179802   -0.005942    0.599679
     26          6           0       -1.145583   -0.112442    0.435366
     27          6           0        0.213164    1.904612   -0.916642
     28          6           0       -1.116677    1.908138   -0.936742
     29          6           0       -1.866537    0.832315   -0.309326
     30          1           0        0.778805    2.677552   -1.416602
     31          1           0       -1.665596    2.697922   -1.434504
     32          6           0       -3.242934    0.701784   -0.407554
     33          6           0       -1.793154   -1.167349    1.077321
     34          6           0       -3.162953   -1.291673    0.974927
     35          6           0       -3.868912   -0.354881    0.230236
     36          1           0       -3.822291    1.418132   -0.972894
     37          1           0       -1.207589   -1.874847    1.647683
     38          1           0       -3.686681   -2.101315    1.460600
     39          7           0       -5.317207   -0.486249    0.119354
     40          8           0       -5.919326    0.337948   -0.538623
     41          8           0       -5.854050   -1.413865    0.690225
     42          1           0        1.288827   -1.216112   -2.991443
 ---------------------------------------------------------------------

 SCF Done:  E(RM062X) =  -1069.92063324     A.U. after    1 cycles

 The electronic state is 1-A.
 Alpha  occ. eigenvalues --  -19.67730 -19.67075 -19.67064 -15.00774 -14.77122
 Alpha  occ. eigenvalues --  -10.65398 -10.63339 -10.60432 -10.57834 -10.57558
 Alpha  occ. eigenvalues --  -10.57387 -10.57193 -10.56734 -10.56548 -10.56359
 Alpha  occ. eigenvalues --  -10.56106 -10.55842 -10.54480 -10.54309 -10.54299
 Alpha  occ. eigenvalues --  -10.54137 -10.53626 -10.53150 -10.52763  -1.38166
 Alpha  occ. eigenvalues --   -1.22415  -1.19238  -1.08351  -1.00515  -0.96108
 Alpha  occ. eigenvalues --   -0.94158  -0.93319  -0.90377  -0.86816  -0.84405
 Alpha  occ. eigenvalues --   -0.83728  -0.82568  -0.79288  -0.77857  -0.74585
 Alpha  occ. eigenvalues --   -0.73698  -0.71832  -0.70462  -0.67602  -0.66424
 Alpha  occ. eigenvalues --   -0.64926  -0.64012  -0.63958  -0.62325  -0.60717
 Alpha  occ. eigenvalues --   -0.59382  -0.57934  -0.57131  -0.55063  -0.54308
 Alpha  occ. eigenvalues --   -0.53262  -0.52361  -0.51754  -0.51080  -0.50639
 Alpha  occ. eigenvalues --   -0.50442  -0.50108  -0.49123  -0.48397  -0.47357
 Alpha  occ. eigenvalues --   -0.46698  -0.46025  -0.45113  -0.44328  -0.44084
 Alpha  occ. eigenvalues --   -0.43542  -0.42169  -0.41037  -0.40648  -0.40372
 Alpha  occ. eigenvalues --   -0.39788  -0.39612  -0.39224  -0.38756  -0.37849
 Alpha  occ. eigenvalues --   -0.36678  -0.32276  -0.30953  -0.28996  -0.26266
 Alpha virt. eigenvalues --   -0.05678  -0.02527   0.01726   0.02695   0.03132
 Alpha virt. eigenvalues --    0.06298   0.07507   0.08277   0.08791   0.09132
 Alpha virt. eigenvalues --    0.09287   0.10305   0.11224   0.11853   0.12252

 Mulliken charges:
               1
     1  C   -0.168157
     2  C   -0.251609
     3  C    0.138666
     4  C   -0.057121
     5  C   -0.206585
     6  C   -0.203235
     7  H    0.177405
     8  H    0.161501
     9  H    0.162810
    10  H    0.172679
    11  N   -0.133995
    12  C    0.195837
    13  C    0.128409
    14  C   -0.433241
    15  H    0.176173
    16  H    0.184296
    17  C   -0.527885
    18  H    0.183159
    19  H    0.169398
    20  H    0.176989
    21  C   -0.478096
    22  H    0.168802
    23  H    0.168464
    24  H    0.168010
    25  O   -0.283978
    26  C    0.135610
    27  C   -0.225165
    28  C   -0.192138
    29  C    0.161958
    30  H    0.197122
    31  H    0.171397
    32  C   -0.171074
    33  C   -0.238589
    34  C   -0.132809
    35  C    0.011085
    36  H    0.200742
    37  H    0.178106
    38  H    0.198577
    39  N    0.504722
    40  O   -0.379671
    41  O   -0.379416
    42  H    0.170845
 Sum of Mulliken charges =  -0.00000

 Dipole moment (field-independent basis, Debye):
    X=              5.9251    Y=              2.0149    Z=             -0.9153  Tot=              6.3249
 Quadrupole moment (field-independent basis, Debye-Ang):
   XX=           -188.4170   YY=           -130.3791   ZZ=           -134.4186
   XY=             -4.3478   XZ=              3.3437   YZ=              0.5789

  Exact polarizability: 450.244  -6.330 311.145  20.959 -20.228 263.844
 Approx polarizability: 374.406  -5.482 300.315  21.743 -24.174 263.338

                      1                      2                      3
                      A                      A                      A
 Frequencies --     22.0232                39.0604                47.2339
 Red. masses --      6.0096                10.1274                 5.7097
 Frc consts  --      0.0017                 0.0091                 0.0075
 IR Inten    --      0.7706                 0.1214                 0.3152

                      4                      5                      6
                      A                      A                      A
 Frequencies --     89.8126               106.6906               119.3438
 Red. masses --      4.3254                 5.6402                 3.6500
 Frc consts  --      0.0206                 0.0378                 0.0306
 IR Inten    --      1.6452                 1.4293                 1.9151

                      7                      8                      9
                      A                      A                      A
 Frequencies --    132.9594               159.4882               185.6480
 Red. masses --      3.1957                 5.9637                 3.4632
 Frc consts  --      0.0333                 0.0894                 0.0703
 IR Inten    --      3.1152                 6.0681                 0.3103

                     10                     11                     12
                      A                      A                      A
 Frequencies --    215.6418               219.8545               235.3297
 Red. masses --      1.4837                 3.1723                 1.8947
 Frc consts  --      0.0406                 0.0903                 0.0618
 IR Inten    --      0.2749                10.0959                 0.4374

                     13                     14                     15
                      A                      A                      A
 Frequencies --    244.9031               272.6400               275.7393
 Red. masses --      1.8186                 2.0155                 3.9441
 Frc consts  --      0.0643                 0.0883                 0.1767
 IR Inten    --      0.1761                 0.9476                 3.2433

                     16                     17                     18
                      A                      A                      A
 Frequencies --    302.6830               325.6663               328.9777
 Red. masses --      2.4629                 2.7771                 3.7717
 Frc consts  --      0.1329                 0.1735                 0.2405
 IR Inten    --      1.5725                 1.4045                 0.7220

                     19                     20                     21
                      A                      A                      A
 Frequencies --    342.4493               346.6338               379.8402
 Red. masses --      3.3832                 1.2861                 3.6207
 Frc consts  --      0.2338                 0.0910                 0.3078
 IR Inten    --      1.1560                 0.9113                 1.5013

                     22                     23                     24
                      A                      A                      A
 Frequencies --    418.1912               421.4626               438.8648
 Red. masses --      5.3012                 3.1768                 5.2689
 Frc consts  --      0.5462                 0.3325                 0.5979
 IR Inten    --      0.2478                 3.9776                16.2885

                     25                     26                     27
                      A                      A                      A
 Frequencies --    458.2510               491.6398               514.6922
 Red. masses --      3.6023                 3.5580                 4.4238
 Frc consts  --      0.4457                 0.5067                 0.6905
 IR Inten    --      5.2539                 4.9559                21.0033

                     28                     29                     30
                      A                      A                      A
 Frequencies --    538.1804               551.7117               559.3685
 Red. masses --      6.1790                 5.7719                 4.2685
 Frc consts  --      1.0544                 1.0351                 0.7869
 IR Inten    --      4.2802                 3.2395                 8.6370

                     31                     32                     33
                      A                      A                      A
 Frequencies --    564.0668               585.1079               586.8527
 Red. masses --      3.6205                 5.7000                 4.1684
 Frc consts  --      0.6787                 1.1497                 0.8458
 IR Inten    --      1.6280                10.9329                 1.7226

                     34                     35                     36
                      A                      A                      A
 Frequencies --    602.5452               640.8025               650.0603
 Red. masses --      4.4273                 4.2839                 4.1911
 Frc consts  --      0.9470                 1.0364                 1.0435
 IR Inten    --      3.9591                 4.2525                 4.4232

                     37                     38                     39
                      A                      A                      A
 Frequencies --    702.0626               740.8686               771.7332
 Red. masses --      6.6984                 2.5277                 1.3032
 Frc consts  --      1.9452                 0.8175                 0.4573
 IR Inten    --     33.4616                10.2240               109.1433

                     40                     41                     42
                      A                      A                      A
 Frequencies --    778.9466               792.2254               793.3920
 Red. masses --      3.8223                 3.8727                 3.8059
 Frc consts  --      1.3664                 1.4321                 1.4115
 IR Inten    --      0.7668                32.0377                38.2568

                     43                     44                     45
                      A                      A                      A
 Frequencies --    800.5830               801.4723               840.2257
 Red. masses --      4.8114                 2.3993                 2.7591
 Frc consts  --      1.8169                 0.9081                 1.1477
 IR Inten    --     29.3000                 3.3147                42.4317

                     46                     47                     48
                      A                      A                      A
 Frequencies --    855.9912               872.0561               880.9262
 Red. masses --      5.4478                 2.1661                 3.5173
 Frc consts  --      2.3519                 0.9705                 1.6082
 IR Inten    --    111.3034                19.8176                33.3085

                     49                     50                     51
                      A                      A                      A
 Frequencies --    890.0326               947.3852               955.6608
 Red. masses --      1.5564                 2.4344                 1.5583
 Frc consts  --      0.7264                 1.2874                 0.8385
 IR Inten    --      1.6734                59.8668                26.9214

                     52                     53                     54
                      A                      A                      A
 Frequencies --    961.7418               966.1580               967.8482
 Red. masses --      3.7610                 1.3578                 1.5560
 Frc consts  --      2.0496                 0.7467                 0.8588
 IR Inten    --     42.8301                14.9037                10.0722

                     55                     56                     57
                      A                      A                      A
 Frequencies --    983.8617              1000.7163              1007.1421
 Red. masses --      3.3777                 1.3551                 1.2979
 Frc consts  --      1.9264                 0.7995                 0.7757
 IR Inten    --    526.9275                 0.2046                 0.8821

                     58                     59                     60
                      A                      A                      A
 Frequencies --   1026.1374              1037.7991              1040.3938
 Red. masses --      1.3470                 1.7511                 2.2976
 Frc consts  --      0.8357                 1.1112                 1.4653
 IR Inten    --     18.1397               128.2302                22.0298

                     61                     62                     63
                      A                      A                      A
 Frequencies --   1056.4159              1088.3116              1119.9871
 Red. masses --      2.1631                 3.0251                 1.8021
 Frc consts  --      1.4223                 2.1110                 1.3319
 IR Inten    --     41.3612                 8.9767               334.7444

                     64                     65                     66
                      A                      A                      A
 Frequencies --   1129.4615              1143.7562              1150.0316
 Red. masses --      1.8134                 1.4907                 1.3553
 Frc consts  --      1.3629                 1.1489                 1.0561
 IR Inten    --     61.4331                20.3294                14.5090

                     67                     68                     69
                      A                      A                      A
 Frequencies --   1153.4531              1172.0882              1177.1544
 Red. masses --      1.3747                 1.3936                 2.0288
 Frc consts  --      1.0776                 1.1280                 1.6564
 IR Inten    --     28.6023                 2.0359                23.2070

                     70                     71                     72
                      A                      A                      A
 Frequencies --   1200.1669              1218.0782              1228.2087
 Red. masses --      1.7961                 2.4120                 1.9459
 Frc consts  --      1.5243                 2.1085                 1.7295
 IR Inten    --     19.4031                65.8723                14.4442

                     73                     74                     75
                      A                      A                      A
 Frequencies --   1253.1410              1276.8322              1290.2363
 Red. masses --      2.5165                 1.7321                 2.3817
 Frc consts  --      2.3284                 1.6637                 2.3360
 IR Inten    --     43.8936                12.5896                32.1951

                     76                     77                     78
                      A                      A                      A
 Frequencies --   1308.9844              1319.8133              1330.3807
 Red. masses --      4.1068                 2.4301                 6.0811
 Frc consts  --      4.1459                 2.4941                 6.3414
 IR Inten    --      7.7378               444.4705               116.9864

                     79                     80                     81
                      A                      A                      A
 Frequencies --   1333.1664              1370.7958              1391.4992
 Red. masses --      2.2479                 7.8758                 3.3943
 Frc consts  --      2.3539                 8.7195                 3.8722
 IR Inten    --    140.3221                87.8421               133.6823

                     82                     83                     84
                      A                      A                      A
 Frequencies --   1393.5400              1413.5847              1417.8923
 Red. masses --      1.3371                 1.2954                 2.1438
 Frc consts  --      1.5299                 1.5251                 2.5393
 IR Inten    --     16.5291                58.5038               169.0435

                     85                     86                     87
                      A                      A                      A
 Frequencies --   1434.3454              1455.6691              1480.4867
 Red. masses --      8.7167                 1.2034                 1.0636
 Frc consts  --     10.5660                 1.5024                 1.3735
 IR Inten    --    836.1416                 4.3185                 2.3772

                     88                     89                     90
                      A                      A                      A
 Frequencies --   1482.9110              1487.4499              1496.4110
 Red. masses --      1.0528                 1.0924                 1.9099
 Frc consts  --      1.3641                 1.4240                 2.5198
 IR Inten    --      8.9509                41.5572                12.9549

                     91                     92                     93
                      A                      A                      A
 Frequencies --   1497.9905              1499.7941              1506.1430
 Red. masses --      1.5409                 1.2682                 1.0866
 Frc consts  --      2.0373                 1.6807                 1.4523
 IR Inten    --      4.5218                34.1772                74.8579

                     94                     95                     96
                      A                      A                      A
 Frequencies --   1512.0979              1529.3620              1531.4854
 Red. masses --      1.6118                 3.0792                 3.3019
 Frc consts  --      2.1713                 4.2434                 4.5629
 IR Inten    --     70.6277               280.4686                 7.1646

                     97                     98                     99
                      A                      A                      A
 Frequencies --   1611.1822              1649.6811              1668.8825
 Red. masses --     11.8652                 7.4753                 7.1832
 Frc consts  --     18.1473                11.9861                11.7874
 IR Inten    --    462.5219               188.6656                 3.1987

                    100                    101                    102
                      A                      A                      A
 Frequencies --   1678.4018              1685.2523              1737.7032
 Red. masses --      7.0745                 8.4254                 7.7326
 Frc consts  --     11.7418                14.0984                13.7571
 IR Inten    --     90.9426               165.3251                46.2191

                    103                    104                    105
                      A                      A                      A
 Frequencies --   3026.5900              3061.0705              3065.1854
 Red. masses --      1.0493                 1.0347                 1.0378
 Frc consts  --      5.6634                 5.7122                 5.7448
 IR Inten    --     69.6286                21.8681                35.2093

                    106                    107                    108
                      A                      A                      A
 Frequencies --   3122.5776              3131.1354              3139.4925
 Red. masses --      1.0856                 1.1014                 1.1034
 Frc consts  --      6.2368                 6.3623                 6.4079
 IR Inten    --     27.1573                19.4182                34.7501

                    109                    110                    111
                      A                      A                      A
 Frequencies --   3144.2699              3159.6206              3166.0325
 Red. masses --      1.1028                 1.1035                 1.1010
 Frc consts  --      6.4236                 6.4905                 6.5022
 IR Inten    --     28.2960                10.7884                19.1493

                    112                    113                    114
                      A                      A                      A
 Frequencies --   3197.4296              3205.1159              3209.9132
 Red. masses --      1.0883                 1.0891                 1.0905
 Frc consts  --      6.5557                 6.5916                 6.6204
 IR Inten    --      6.6241                 9.3469                 6.9152

                    115                    116                    117
                      A                      A                      A
 Frequencies --   3223.7197              3229.7058              3235.4837
 Red. masses --      1.0926                 1.0965                 1.0912
 Frc consts  --      6.6901                 6.7391                 6.7304
 IR Inten    --     18.8954                11.4262                 0.1837

                    118                    119                    120
                      A                      A                      A
 Frequencies --   3241.2193              3245.5503              3258.7608
 Red. masses --      1.0922                 1.0945                 1.0942
 Frc consts  --      6.7606                 6.7927                 6.8460
 IR Inten    --      4.3597                 0.9939                 6.6733

 - Thermochemistry -
 -------------------
 Temperature   298.150 Kelvin.  Pressure   1.00000 Atm.
 Atom     1 has atomic number  6 and mass  12.00000

 Molecular mass:   322.13174 amu.
 Principal axes and moments of inertia in atomic units:
                           1         2         3
     Eigenvalues --  2981.82261********************
           X            0.99999   0.00056   0.00378
           Y           -0.00067   0.99955   0.02997
           Z           -0.00376  -0.02998   0.99954
 This molecule is an asymmetric top.
 Rotational symmetry number  1.
 Warning -- assumption of classical behavior for rotation
           may cause significant error
 Rotational temperatures (Kelvin)      0.02905     0.00628     0.00594
 Rotational constants (GHZ):           0.60525     0.13094     0.12370
 Zero-point vibrational energy     889871.4 (Joules/Mol)
                                  212.68437 (Kcal/Mol)
 Warning -- explicit consideration of  34 degrees of freedom as
           vibrations may cause significant error
 Vibrational temperatures:     31.69    56.20    67.96   129.22   153.50
          (Kelvin)            171.71   191.30   229.47   267.11   310.26
                              316.32   338.59   352.36   392.27   396.73
                              435.49   468.56   473.33   492.71   498.73
                              546.51   601.68   606.39   631.43   659.32
                              707.36   740.53   774.32   793.79   804.81
                              811.57   841.84   844.35   866.93   921.97
                              935.29  1010.11  1065.94  1110.35  1120.73
                             1139.84  1141.51  1151.86  1153.14  1208.90
                             1231.58  1254.69  1267.46  1280.56  1363.08
                             1374.98  1383.73  1390.09  1392.52  1415.56
                             1439.81  1449.05  1476.38  1493.16  1496.89
                             1519.95  1565.84  1611.41  1625.04  1645.61
                             1654.64  1659.56  1686.37  1693.66  1726.77
                             1752.54  1767.12  1802.99  1837.08  1856.36
                             1883.34  1898.92  1914.12  1918.13  1972.27
                             2002.06  2004.99  2033.83  2040.03  2063.70
                             2094.38  2130.09  2133.58  2140.11  2153.00
                             2155.27  2157.87  2167.00  2175.57  2200.41
                             2203.47  2318.13  2373.52  2401.15  2414.85
                             2424.70  2500.17  4354.59  4404.20  4410.12
                             4492.69  4505.01  4517.03  4523.90  4545.99
                             4555.21  4600.39  4611.45  4618.35  4638.21
                             4646.83  4655.14  4663.39  4669.62  4688.63

 Zero-point correction=                           0.338934 (Hartree/Particle)
 Thermal correction to Energy=                    0.358587
 Thermal correction to Enthalpy=                  0.359532
 Thermal correction to Gibbs Free Energy=         0.290953
 Sum of electronic and zero-point Energies=          -1069.581699
 Sum of electronic and thermal Energies=             -1069.562046
 Sum of electronic and thermal Enthalpies=           -1069.561102
 Sum of electronic and thermal Free Energies=        -1069.629680

                     E (Thermal)             CV                S
                      KCal/Mol        Cal/Mol-Kelvin    Cal/Mol-Kelvin
 Total                  225.017             79.476            144.336
 Electronic               0.000              0.000              0.000
 Translational            0.889              2.981             43.205
 Rotational               0.889              2.981             34.749
 Vibrational            223.240             73.515             66.382
 Vibration     1          0.593              1.985              6.443
 Vibration     2          0.594              1.981              5.306
 Vibration     3          0.595              1.979              4.930
 Vibration     4          0.602              1.956              3.664
 Vibration     5          0.606              1.944              3.328
 Vibration     6          0.609              1.933              3.111
 Vibration     7          0.613              1.920              2.903
 Vibration     8          0.621              1.892              2.556
 Vibration     9          0.632              1.859              2.271
 Vibration    10          0.645              1.817              1.995
 Vibration    11          0.647              1.811              1.960
 Vibration    12          0.655              1.787              1.838
 Vibration    13          0.660              1.771              1.767
 Vibration    14          0.676              1.724              1.579
 Vibration    15          0.677              1.718              1.560
 Vibration    16          0.694              1.669              1.402
 Vibration    17          0.710              1.624              1.281
 Vibration    18          0.712              1.618              1.265
 Vibration    19          0.722              1.591              1.201
 Vibration    20          0.725              1.582              1.181
 Vibration    21          0.750              1.513              1.040
 Vibration    22          0.781              1.431              0.898
 Vibration    23          0.784              1.424              0.887
 Vibration    24          0.799              1.385              0.830
 Vibration    25          0.816              1.343              0.771
 Vibration    26          0.847              1.269              0.679
 Vibration    27          0.870              1.217              0.622
 Vibration    28          0.893              1.166              0.569
 Vibration    29          0.907              1.136              0.541
 Vibration    30          0.915              1.119              0.525
 Vibration    31          0.920              1.109              0.516
 Vibration    32          0.942              1.064              0.476
 Vibration    33          0.944              1.060              0.473
 Vibration    34          0.961              1.026              0.445

 Optimization completed.
    -- Stationary point found.
 Normal termination of Gaussian 16 at Sun Mar 10 12:03:06 2024.
