 Gaussian 16, Revision A.03,
 Gaussian 16:  ES64L-G16RevA.03 25-Dec-2016

 ----------------------------------------------------------------------
 #p PBE1PBE/def2TZVP EmpiricalDispersion=GD3BJ SCRF(PCM,Solvent=acetoni
 trile) TD(Singlets,NStates=5, root=1) opt guess=(read) geom=(allcheck)
  gfinput
 ----------------------------------------------------------------------

 Structure from the checkpoint file:  "sp1_s1_pbe0.chk"
 -----
 TITLE
 -----
 Charge =  0 Multiplicity = 1

 SCF Done:  E(RPBE1PBE) =  -1069.17760727     A.U. after    2 cycles
 Total Energy, E(TD-HF/TD-DFT) =  -1069.06687579
 SCF Done:  E(RPBE1PBE) =  -1069.16923254     A.U. after   12 cycles
 Total Energy, E(TD-HF/TD-DFT) =  -1069.08320635
 SCF Done:  E(RPBE1PBE) =  -1069.16024724     A.U. after   12 cycles
 Total Energy, E(TD-HF/TD-DFT) =  -1069.08738062
 SCF Done:  E(RPBE1PBE) =  -1069.15864565     A.U. after   11 cycles
 Total Energy, E(TD-HF/TD-DFT) =  -1069.08797005
 SCF Done:  E(RPBE1PBE) =  -1069.15794888     A.U. after   10 cycles
 Total Energy, E(TD-HF/TD-DFT) =  -1069.08823269
 SCF Done:  E(RPBE1PBE) =  -1069.15771740     A.U. after   10 cycles
 Total Energy, E(TD-HF/TD-DFT) =  -1069.08835557
 SCF Done:  E(RPBE1PBE) =  -1069.15726277     A.U. after   11 cycles
 Total Energy, E(TD-HF/TD-DFT) =  -1069.08855446
 SCF Done:  E(RPBE1PBE) =  -1069.15699734     A.U. after   11 cycles
 Total Energy, E(TD-HF/TD-DFT) =  -1069.08880882
 SCF Done:  E(RPBE1PBE) =  -1069.15758255     A.U. after   11 cycles
 Total Energy, E(TD-HF/TD-DFT) =  -1069.08903219
 SCF Done:  E(RPBE1PBE) =  -1069.15774702     A.U. after   10 cycles
 Total Energy, E(TD-HF/TD-DFT) =  -1069.08905820
 SCF Done:  E(RPBE1PBE) =  -1069.15744026     A.U. after   10 cycles
 Total Energy, E(TD-HF/TD-DFT) =  -1069.08906656
 SCF Done:  E(RPBE1PBE) =  -1069.15753091     A.U. after    9 cycles
 Total Energy, E(TD-HF/TD-DFT) =  -1069.08906975
 SCF Done:  E(RPBE1PBE) =  -1069.15752889     A.U. after    7 cycles

 Excitation energies and oscillator strengths:

 Excited State   1:      Singlet-A      1.8629 eV  665.56 nm  f=0.0213  <S**2>=0.000
      85 -> 86        -0.70584
 This state for optimization and/or second-order correction.
 Total Energy, E(TD-HF/TD-DFT) =  -1069.08906995
 Copying the excited state density for this state as the 1-particle RhoCI density.

 Excited State   2:      Singlet-A      3.0902 eV  401.22 nm  f=0.1047  <S**2>=0.000
      85 -> 87        -0.70359

 Excited State   3:      Singlet-A      3.2427 eV  382.35 nm  f=0.2150  <S**2>=0.000
      82 -> 86         0.10903
      83 -> 86        -0.14192
      84 -> 86         0.67864

 Excited State   4:      Singlet-A      3.3711 eV  367.79 nm  f=0.0001  <S**2>=0.000
      80 -> 86         0.12505
      81 -> 86         0.68439

 Excited State   5:      Singlet-A      3.6837 eV  336.57 nm  f=0.0385  <S**2>=0.000
      82 -> 86         0.19031
      83 -> 86        -0.65655
      84 -> 86        -0.17161

 Optimization completed.
    -- Stationary point found.

                         Standard orientation:
 ---------------------------------------------------------------------
 Center     Atomic      Atomic             Coordinates (Angstroms)
 Number     Number       Type             X           Y           Z
 ---------------------------------------------------------------------
      1          6           0        4.168418   -2.481640   -0.418814
      2          6           0        3.031452   -2.058461   -1.056182
      3          6           0        2.483710   -0.828381   -0.641806
      4          6           0        3.094990   -0.033879    0.364953
      5          6           0        4.229328   -0.482712    0.988585
      6          6           0        4.761106   -1.710812    0.597209
      7          1           0        2.557160   -2.654648   -1.823021
      8          1           0        5.656883   -2.079968    1.079419
      9          1           0        4.615767   -3.428505   -0.690930
     10          1           0        4.713407    0.101715    1.760382
     11          7           0        1.365986   -0.243187   -1.073350
     12          6           0        0.983958    0.891211   -0.152360
     13          6           0        2.361722    1.269308    0.475785
     14          6           0        0.517025   -0.754773   -2.112885
     15          1           0       -0.090111    0.057917   -2.503470
     16          1           0       -0.141715   -1.533458   -1.717716
     17          6           0        3.109012    2.289985   -0.393178
     18          1           0        3.138456    1.991476   -1.443117
     19          1           0        4.136296    2.375435   -0.037555
     20          1           0        2.641571    3.272424   -0.315714
     21          6           0        2.232104    1.795388    1.894756
     22          1           0        1.809865    1.050659    2.566200
     23          1           0        1.593648    2.680672    1.908300
     24          1           0        3.215842    2.087432    2.266437
     25          8           0        0.222614    0.327229    0.878294
     26          6           0       -1.111944    0.095692    0.632984
     27          6           0        0.253904    1.971650   -0.877984
     28          6           0       -1.079684    1.969288   -0.904751
     29          6           0       -1.825090    0.926584   -0.232703
     30          1           0        0.830216    2.718186   -1.404650
     31          1           0       -1.622590    2.737776   -1.444157
     32          6           0       -3.182761    0.716629   -0.420766
     33          6           0       -1.749390   -0.917054    1.330363
     34          6           0       -3.100577   -1.131934    1.141460
     35          6           0       -3.833308   -0.321215    0.256724
     36          1           0       -3.748540    1.344478   -1.095134
     37          1           0       -1.178720   -1.537671    2.010950
     38          1           0       -3.614524   -1.927033    1.661907
     39          7           0       -5.189076   -0.548134    0.054422
     40          8           0       -5.829342    0.198949   -0.755200
     41          8           0       -5.760790   -1.498136    0.681974
     42          1           0        1.125003   -1.171210   -2.914535
 ---------------------------------------------------------------------

 The electronic state is 1-A.
 Alpha  occ. eigenvalues --  -19.26688 -19.24632 -19.24623 -14.62886 -14.40884
 Alpha  occ. eigenvalues --  -10.34127 -10.32289 -10.29685 -10.26752 -10.26619
 Alpha  occ. eigenvalues --  -10.26461 -10.26217 -10.25489 -10.25346 -10.25132
 Alpha  occ. eigenvalues --  -10.24971 -10.24593 -10.22416 -10.22335 -10.22330
 Alpha  occ. eigenvalues --  -10.21918 -10.21701 -10.21342 -10.21273  -1.23745
 Alpha  occ. eigenvalues --   -1.13915  -1.06240  -1.00072  -0.93363  -0.87921
 Alpha  occ. eigenvalues --   -0.86986  -0.86667  -0.83740  -0.79746  -0.77047
 Alpha  occ. eigenvalues --   -0.76640  -0.76149  -0.72212  -0.71066  -0.68297
 Alpha  occ. eigenvalues --   -0.67514  -0.65523  -0.63965  -0.61054  -0.58972
 Alpha  occ. eigenvalues --   -0.58456  -0.58222  -0.56114  -0.54930  -0.54740
 Alpha  occ. eigenvalues --   -0.52881  -0.52257  -0.51397  -0.49447  -0.48826
 Alpha  occ. eigenvalues --   -0.47948  -0.46981  -0.46533  -0.45615  -0.45339
 Alpha  occ. eigenvalues --   -0.45020  -0.44668  -0.43920  -0.43154  -0.42149
 Alpha  occ. eigenvalues --   -0.41515  -0.40991  -0.39931  -0.39199  -0.38604
 Alpha  occ. eigenvalues --   -0.38389  -0.37073  -0.36337  -0.35249  -0.34778
 Alpha  occ. eigenvalues --   -0.34311  -0.34143  -0.33346  -0.33113  -0.31762
 Alpha  occ. eigenvalues --   -0.31546  -0.28630  -0.26777  -0.25995  -0.20281
 Alpha virt. eigenvalues --   -0.11408  -0.05998  -0.01242  -0.00570   0.01072
 Alpha virt. eigenvalues --    0.03146   0.04403   0.06116   0.06584   0.06976
 Alpha virt. eigenvalues --    0.07250   0.08387   0.09061   0.10001   0.10190

 Mulliken charges:
               1
     1  C   -0.124054
     2  C   -0.334777
     3  C    0.107778
     4  C   -0.102410
     5  C   -0.240063
     6  C   -0.188542
     7  H    0.139580
     8  H    0.128014
     9  H    0.133663
    10  H    0.129502
    11  N    0.000071
    12  C    0.389797
    13  C    0.277901
    14  C   -0.351096
    15  H    0.164848
    16  H    0.139249
    17  C   -0.459240
    18  H    0.153988
    19  H    0.147125
    20  H    0.142903
    21  C   -0.429405
    22  H    0.142817
    23  H    0.138194
    24  H    0.141127
    25  O   -0.246962
    26  C    0.215636
    27  C   -0.308679
    28  C   -0.222652
    29  C    0.236794
    30  H    0.159426
    31  H    0.150518
    32  C   -0.293493
    33  C   -0.256619
    34  C   -0.134982
    35  C    0.108018
    36  H    0.167581
    37  H    0.148287
    38  H    0.167650
    39  N    0.451193
    40  O   -0.370853
    41  O   -0.371672
    42  H    0.153838
 Sum of Mulliken charges =  -0.00000

 Dipole moment (field-independent basis, Debye):
    X=              5.5380    Y=              3.2443    Z=             -1.1456  Tot=              6.5198
 Quadrupole moment (field-independent basis, Debye-Ang):
   XX=           -195.9794   YY=           -131.0127   ZZ=           -133.5889
   XY=             -2.5156   XZ=              0.1732   YZ=             -1.0799

 Normal termination of Gaussian 16 at Wed May  8 12:59:27 2024.
