 Gaussian 16, Revision A.03,
 Gaussian 16:  ES64L-G16RevA.03 25-Dec-2016

 ----------------------------------------------------------------------
 #P CAM-B3LYP/def2TZVP opt freq=(noraman) scrf=(pcm,solvent=acetonitril
 e) EmpiricalDispersion=GD3BJ gfinput
 ----------------------------------------------------------------------

 -----
 TITLE
 -----
 Symbolic Z-matrix:
 Charge =  0 Multiplicity = 1

 SCF Done:  E(RCAM-B3LYP) =  -1069.84424326     A.U. after   15 cycles
 SCF Done:  E(RCAM-B3LYP) =  -1069.85818991     A.U. after   14 cycles
 SCF Done:  E(RCAM-B3LYP) =  -1069.86274976     A.U. after   13 cycles
 SCF Done:  E(RCAM-B3LYP) =  -1069.85744697     A.U. after   15 cycles
 SCF Done:  E(RCAM-B3LYP) =  -1069.86626304     A.U. after   13 cycles
 SCF Done:  E(RCAM-B3LYP) =  -1069.86707083     A.U. after   12 cycles
 SCF Done:  E(RCAM-B3LYP) =  -1069.86722651     A.U. after   11 cycles
 SCF Done:  E(RCAM-B3LYP) =  -1069.86725533     A.U. after   11 cycles
 SCF Done:  E(RCAM-B3LYP) =  -1069.86726266     A.U. after   10 cycles
 SCF Done:  E(RCAM-B3LYP) =  -1069.86726490     A.U. after    9 cycles
 SCF Done:  E(RCAM-B3LYP) =  -1069.83826463     A.U. after   14 cycles
 SCF Done:  E(RCAM-B3LYP) =  -1069.86736791     A.U. after   12 cycles
 SCF Done:  E(RCAM-B3LYP) =  -1069.86743500     A.U. after    6 cycles
 SCF Done:  E(RCAM-B3LYP) =  -1069.86744718     A.U. after   10 cycles
 SCF Done:  E(RCAM-B3LYP) =  -1069.86723671     A.U. after   12 cycles
 SCF Done:  E(RCAM-B3LYP) =  -1069.86744889     A.U. after   12 cycles
 SCF Done:  E(RCAM-B3LYP) =  -1069.86744989     A.U. after    9 cycles
 SCF Done:  E(RCAM-B3LYP) =  -1069.86744998     A.U. after    8 cycles
 SCF Done:  E(RCAM-B3LYP) =  -1069.86744998     A.U. after    8 cycles
 Optimization completed.
    -- Stationary point found.

 1\1\GINC-N302\FOpt\RCAM-B3LYP\def2TZVP\C19H18N2O3\ARTD\10-Mar-2024\0\\
 #P CAM-B3LYP/def2TZVP opt freq=(noraman) scrf=(pcm,solvent=acetonitril
 e) EmpiricalDispersion=GD3BJ gfinput\\TITLE\\0,1\C,-5.7743800878,1.753
 4681175,-1.470733373\C,-5.0272881381,1.0521143374,-0.5267027885\C,-3.9
 198762905,1.6767003224,0.0148436999\C,-3.5528866976,2.9631207082,-0.37
 52640955\C,-4.2943490363,3.6451972434,-1.3083993423\C,-5.4185803386,3.
 0317867423,-1.8630754888\H,-5.3084110662,0.0489693271,-0.2384140799\H,
 -6.0089069943,3.5546770217,-2.6031087087\H,-6.6438295537,1.2814289358,

 Normal termination of Gaussian 16 at Sun Mar 10 13:10:08 2024.

 ----------------------------------------------------------------------
 #P Geom=AllCheck Guess=TCheck SCRF=Check GenChk RCAM-B3LYP/def2TZVP Fr
 eq
 ----------------------------------------------------------------------

 Structure from the checkpoint file:  "sp1_gs_b3lyp.chk"
 -----
 TITLE
 -----
 Charge =  0 Multiplicity = 1

                         Standard orientation:
 ---------------------------------------------------------------------
 Center     Atomic      Atomic             Coordinates (Angstroms)
 Number     Number       Type             X           Y           Z
 ---------------------------------------------------------------------
      1          6           0        4.970105   -1.539843   -0.595722
      2          6           0        4.047651   -0.828861   -1.360457
      3          6           0        3.047509   -0.144986   -0.695797
      4          6           0        2.955053   -0.171042    0.694353
      5          6           0        3.867677   -0.876856    1.439121
      6          6           0        4.887218   -1.570186    0.785159
      7          1           0        4.115765   -0.823886   -2.439241
      8          1           0        5.609827   -2.134856    1.358336
      9          1           0        5.759629   -2.084772   -1.096659
     10          1           0        3.799131   -0.901179    2.519576
     11          7           0        2.029801    0.642169   -1.229587
     12          6           0        1.005980    0.791636   -0.233615
     13          6           0        1.798102    0.704348    1.117175
     14          6           0        1.663521    0.537086   -2.622296
     15          1           0        0.879056    1.257741   -2.842713
     16          1           0        1.303849   -0.463156   -2.883255
     17          6           0        2.338815    2.082856    1.513912
     18          1           0        2.905341    2.538981    0.702610
     19          1           0        3.003429    1.970920    2.369584
     20          1           0        1.530618    2.756824    1.798255
     21          6           0        0.957557    0.140876    2.252182
     22          1           0        0.635448   -0.877907    2.051631
     23          1           0        0.075763    0.760436    2.423892
     24          1           0        1.540372    0.138874    3.172976
     25          8           0        0.167388   -0.405917   -0.330189
     26          6           0       -1.162177   -0.382530   -0.217066
     27          6           0        0.198954    2.034390   -0.413811
     28          6           0       -1.125333    2.049403   -0.378710
     29          6           0       -1.878872    0.819589   -0.217684
     30          1           0        0.764765    2.942859   -0.557808
     31          1           0       -1.671616    2.977112   -0.487559
     32          6           0       -3.254939    0.778949   -0.106933
     33          6           0       -1.819110   -1.605016   -0.125548
     34          6           0       -3.189729   -1.637335   -0.011727
     35          6           0       -3.894311   -0.442764    0.000792
     36          1           0       -3.830249    1.692515   -0.109437
     37          1           0       -1.237973   -2.515807   -0.136530
     38          1           0       -3.717288   -2.574497    0.071046
     39          7           0       -5.338987   -0.474617    0.124049
     40          8           0       -5.942409    0.583333    0.135299
     41          8           0       -5.888261   -1.558057    0.211336
     42          1           0        2.522671    0.773788   -3.247474
 ---------------------------------------------------------------------

 SCF Done:  E(RCAM-B3LYP) =  -1069.86744998     A.U. after    1 cycles

 The electronic state is 1-A.
 Alpha  occ. eigenvalues --  -19.24693 -19.23978 -19.23975 -14.64187 -14.40987
 Alpha  occ. eigenvalues --  -10.35862 -10.33802 -10.30741 -10.28314 -10.27946
 Alpha  occ. eigenvalues --  -10.27848 -10.27595 -10.27303 -10.27073 -10.26849
 Alpha  occ. eigenvalues --  -10.26438 -10.26290 -10.24903 -10.24769 -10.24684
 Alpha  occ. eigenvalues --  -10.24479 -10.24005 -10.23705 -10.23551  -1.33238
 Alpha  occ. eigenvalues --   -1.18066  -1.15067  -1.05970  -0.98425  -0.94242
 Alpha  occ. eigenvalues --   -0.92461  -0.91330  -0.88784  -0.85369  -0.83010
 Alpha  occ. eigenvalues --   -0.82394  -0.81233  -0.77961  -0.76786  -0.73759
 Alpha  occ. eigenvalues --   -0.72682  -0.70988  -0.69527  -0.66728  -0.65143
 Alpha  occ. eigenvalues --   -0.64390  -0.63777  -0.62844  -0.61531  -0.59855
 Alpha  occ. eigenvalues --   -0.58467  -0.57471  -0.57427  -0.55168  -0.53672
 Alpha  occ. eigenvalues --   -0.53134  -0.52855  -0.51691  -0.51123  -0.50818
 Alpha  occ. eigenvalues --   -0.50359  -0.49704  -0.48952  -0.48792  -0.47771
 Alpha  occ. eigenvalues --   -0.46843  -0.45899  -0.45436  -0.44402  -0.44075
 Alpha  occ. eigenvalues --   -0.43852  -0.42574  -0.41555  -0.41152  -0.39889
 Alpha  occ. eigenvalues --   -0.39675  -0.39359  -0.38884  -0.38379  -0.37659
 Alpha  occ. eigenvalues --   -0.36668  -0.32374  -0.31198  -0.28792  -0.26352
 Alpha virt. eigenvalues --   -0.05126  -0.01148   0.03015   0.03868   0.04491
 Alpha virt. eigenvalues --    0.07086   0.08744   0.09293   0.09557   0.09925
 Alpha virt. eigenvalues --    0.10244   0.10931   0.12301   0.12465   0.13352

 Mulliken charges:
               1
     1  C   -0.138961
     2  C   -0.272914
     3  C    0.147499
     4  C   -0.060865
     5  C   -0.212373
     6  C   -0.181948
     7  H    0.148232
     8  H    0.139972
     9  H    0.143736
    10  H    0.144279
    11  N   -0.145269
    12  C    0.453611
    13  C    0.180491
    14  C   -0.344377
    15  H    0.152478
    16  H    0.141822
    17  C   -0.447866
    18  H    0.147749
    19  H    0.141711
    20  H    0.145332
    21  C   -0.445654
    22  H    0.146827
    23  H    0.143464
    24  H    0.143687
    25  O   -0.295745
    26  C    0.195216
    27  C   -0.366446
    28  C   -0.101608
    29  C    0.129314
    30  H    0.167645
    31  H    0.158165
    32  C   -0.227045
    33  C   -0.265047
    34  C   -0.126128
    35  C    0.077483
    36  H    0.176204
    37  H    0.150204
    38  H    0.176372
    39  N    0.429272
    40  O   -0.347805
    41  O   -0.348133
    42  H    0.147417
 Sum of Mulliken charges =  -0.00000

 Dipole moment (field-independent basis, Debye):
    X=              6.1256    Y=              2.4217    Z=             -0.8335  Tot=              6.6395
 Quadrupole moment (field-independent basis, Debye-Ang):
   XX=           -193.1735   YY=           -133.5877   ZZ=           -131.4227
   XY=             -5.0791   XZ=              1.6429   YZ=             -0.8370

  Exact polarizability: 454.549 -17.579 308.516  -6.345  -6.800 259.942
 Approx polarizability: 362.879 -16.315 298.699  -6.664  -7.637 246.237

                      1                      2                      3
                      A                      A                      A
 Frequencies --     17.3031                40.8420                46.6207
 Red. masses --      5.7622                 5.2035                11.8304
 Frc consts  --      0.0010                 0.0051                 0.0151
 IR Inten    --      0.8160                 0.3157                 0.0684

                      4                      5                      6
                      A                      A                      A
 Frequencies --     88.1066               108.5020               115.6715
 Red. masses --      4.6461                 5.7422                 3.4830
 Frc consts  --      0.0213                 0.0398                 0.0275
 IR Inten    --      1.8862                 1.3210                 3.2654

                      7                      8                      9
                      A                      A                      A
 Frequencies --    126.1514               157.7531               170.7310
 Red. masses --      3.1070                 3.7186                 1.6854
 Frc consts  --      0.0291                 0.0545                 0.0289
 IR Inten    --      2.9099                 4.2288                 1.1976

                     10                     11                     12
                      A                      A                      A
 Frequencies --    192.6043               234.8197               235.6681
 Red. masses --      2.1708                 2.7620                 1.6845
 Frc consts  --      0.0474                 0.0897                 0.0551
 IR Inten    --      0.5254                 4.0221                 0.4443

                     13                     14                     15
                      A                      A                      A
 Frequencies --    244.5172               268.1267               272.1926
 Red. masses --      3.4696                 2.4583                 2.7579
 Frc consts  --      0.1222                 0.1041                 0.1204
 IR Inten    --      5.4728                 0.5752                 7.5992

                     16                     17                     18
                      A                      A                      A
 Frequencies --    289.9603               311.3255               325.2153
 Red. masses --      2.2356                 1.3274                 3.5707
 Frc consts  --      0.1107                 0.0758                 0.2225
 IR Inten    --      0.2827                 0.6787                 0.7205

                     19                     20                     21
                      A                      A                      A
 Frequencies --    332.7005               350.0322               369.6649
 Red. masses --      3.9878                 3.2163                 3.7843
 Frc consts  --      0.2601                 0.2322                 0.3047
 IR Inten    --      3.8746                 2.1932                 1.2809

                     22                     23                     24
                      A                      A                      A
 Frequencies --    414.8730               425.9075               435.0989
 Red. masses --      5.3851                 3.3910                 4.6222
 Frc consts  --      0.5461                 0.3624                 0.5156
 IR Inten    --      0.5049                 5.0664                 9.0684

                     25                     26                     27
                      A                      A                      A
 Frequencies --    467.9386               496.4993               516.8664
 Red. masses --      3.8612                 3.3118                 4.6059
 Frc consts  --      0.4981                 0.4810                 0.7250
 IR Inten    --      5.1794                 5.3911                27.3377

                     28                     29                     30
                      A                      A                      A
 Frequencies --    535.7777               552.9030               563.6727
 Red. masses --      6.2099                 5.6041                 4.2096
 Frc consts  --      1.0503                 1.0094                 0.7880
 IR Inten    --      7.0439                 2.8732                12.1224

                     31                     32                     33
                      A                      A                      A
 Frequencies --    570.8332               582.3480               589.4262
 Red. masses --      3.5344                 4.7226                 5.4809
 Frc consts  --      0.6786                 0.9436                 1.1219
 IR Inten    --      2.4049                 1.8482                 4.3540

                     34                     35                     36
                      A                      A                      A
 Frequencies --    601.8083               650.0754               654.4276
 Red. masses --      4.0301                 5.3033                 3.5193
 Frc consts  --      0.8600                 1.3205                 0.8880
 IR Inten    --      4.4243                 5.7822                 0.2724

                     37                     38                     39
                      A                      A                      A
 Frequencies --    709.3458               747.7839               770.6674
 Red. masses --      6.6279                 2.4063                 1.2712
 Frc consts  --      1.9649                 0.7928                 0.4448
 IR Inten    --     44.9762                 6.6111               107.2629

                     40                     41                     42
                      A                      A                      A
 Frequencies --    781.8541               792.4458               795.7170
 Red. masses --      4.1397                 4.5334                 4.5454
 Frc consts  --      1.4910                 1.6773                 1.6957
 IR Inten    --      9.7811                51.4531                26.3008

                     43                     44                     45
                      A                      A                      A
 Frequencies --    798.1221               812.8878               842.7290
 Red. masses --      3.4812                 2.0071                 4.4883
 Frc consts  --      1.3065                 0.7814                 1.8781
 IR Inten    --     10.5143                21.1785                93.4402

                     46                     47                     48
                      A                      A                      A
 Frequencies --    853.5007               875.6536               883.8004
 Red. masses --      4.4512                 2.1329                 2.7920
 Frc consts  --      1.9105                 0.9636                 1.2849
 IR Inten    --    156.5965                33.4400                 2.5033

                     49                     50                     51
                      A                      A                      A
 Frequencies --    890.7215               950.3033               962.1395
 Red. masses --      1.7498                 2.7290                 2.8735
 Frc consts  --      0.8179                 1.4520                 1.5672
 IR Inten    --      2.4674                 8.0143                68.2793

                     52                     53                     54
                      A                      A                      A
 Frequencies --    967.5549               968.7061               972.7533
 Red. masses --      1.5359                 1.4477                 1.5959
 Frc consts  --      0.8472                 0.8004                 0.8898
 IR Inten    --     33.0513                21.5829                 1.4449

                     55                     56                     57
                      A                      A                      A
 Frequencies --    990.2126               999.1411              1007.6784
 Red. masses --      3.7911                 1.2891                 1.3727
 Frc consts  --      2.1902                 0.7582                 0.8213
 IR Inten    --    564.5746                 0.9056                 0.1229

                     58                     59                     60
                      A                      A                      A
 Frequencies --   1027.1123              1035.5021              1050.2151
 Red. masses --      2.2235                 1.3350                 1.8267
 Frc consts  --      1.3821                 0.8434                 1.1871
 IR Inten    --     11.7537                 4.1335                77.7311

                     61                     62                     63
                      A                      A                      A
 Frequencies --   1060.4055              1103.6419              1119.3692
 Red. masses --      2.1189                 2.9844                 1.7662
 Frc consts  --      1.4038                 2.1418                 1.3039
 IR Inten    --     78.5379                15.1411               429.1947

                     64                     65                     66
                      A                      A                      A
 Frequencies --   1140.5863              1150.3151              1155.5354
 Red. masses --      1.8070                 1.5346                 1.3598
 Frc consts  --      1.3851                 1.1964                 1.0698
 IR Inten    --     54.9437                14.4748                18.1731

                     67                     68                     69
                      A                      A                      A
 Frequencies --   1159.4298              1180.5026              1183.9141
 Red. masses --      1.3724                 1.3393                 2.1758
 Frc consts  --      1.0869                 1.0996                 1.7968
 IR Inten    --     35.7716                 0.4237                29.7446

                     70                     71                     72
                      A                      A                      A
 Frequencies --   1199.2516              1221.3801              1229.7386
 Red. masses --      1.6832                 2.4348                 2.1437
 Frc consts  --      1.4263                 2.1400                 1.9100
 IR Inten    --     11.7859                23.3718               100.1495

                     73                     74                     75
                      A                      A                      A
 Frequencies --   1261.7157              1288.2545              1299.5714
 Red. masses --      2.5007                 1.6909                 2.4054
 Frc consts  --      2.3455                 1.6534                 2.3935
 IR Inten    --     61.0018                12.7563                14.0314

                     76                     77                     78
                      A                      A                      A
 Frequencies --   1321.9780              1326.7901              1340.5325
 Red. masses --      3.7614                 3.2753                 5.8139
 Frc consts  --      3.8731                 3.3971                 6.1556
 IR Inten    --     16.8515               660.0760                94.3177

                     79                     80                     81
                      A                      A                      A
 Frequencies --   1348.8506              1374.9794              1404.7457
 Red. masses --      1.9766                 8.4404                 3.8786
 Frc consts  --      2.1188                 9.4017                 4.5094
 IR Inten    --     31.9123               123.0105                93.1711

                     82                     83                     84
                      A                      A                      A
 Frequencies --   1406.8678              1409.6983              1427.1030
 Red. masses --      7.0629                 1.3122                 2.2648
 Frc consts  --      8.2365                 1.5364                 2.7176
 IR Inten    --    880.5830               111.0031                 1.5352

                     85                     86                     87
                      A                      A                      A
 Frequencies --   1428.3169              1467.8520              1490.1967
 Red. masses --      1.2490                 1.2001                 1.0542
 Frc consts  --      1.5013                 1.5235                 1.3793
 IR Inten    --     12.7374                13.1680                 8.2054

                     88                     89                     90
                      A                      A                      A
 Frequencies --   1490.7452              1492.2139              1501.9015
 Red. masses --      1.0683                 1.0477                 2.8044
 Frc consts  --      1.3988                 1.3744                 3.7271
 IR Inten    --     43.9151                 1.9941                20.9792

                     91                     92                     93
                      A                      A                      A
 Frequencies --   1503.6619              1504.8825              1512.0213
 Red. masses --      1.1069                 1.3032                 1.0970
 Frc consts  --      1.4746                 1.7389                 1.4777
 IR Inten    --      6.0137                23.4359                90.6780

                     94                     95                     96
                      A                      A                      A
 Frequencies --   1521.5651              1537.9841              1542.8198
 Red. masses --      1.8273                 3.2979                 3.0491
 Frc consts  --      2.4926                 4.5961                 4.2761
 IR Inten    --     58.0075               178.5447               134.2939

                     97                     98                     99
                      A                      A                      A
 Frequencies --   1591.2933              1652.2163              1674.1178
 Red. masses --     12.1601                 7.2626                 7.0053
 Frc consts  --     18.1421                11.6809                11.5677
 IR Inten    --    472.9468               144.0901                 4.7099

                    100                    101                    102
                      A                      A                      A
 Frequencies --   1685.4577              1686.5615              1751.8744
 Red. masses --      6.9197                 7.9371                 7.7172
 Frc consts  --     11.5818                13.3021                13.9545
 IR Inten    --    111.5682               130.5749                55.4936

                    103                    104                    105
                      A                      A                      A
 Frequencies --   3031.3396              3060.5709              3064.6271
 Red. masses --      1.0482                 1.0356                 1.0376
 Frc consts  --      5.6751                 5.7151                 5.7417
 IR Inten    --     81.1040                22.0940                34.6706

                    106                    107                    108
                      A                      A                      A
 Frequencies --   3114.1733              3124.4140              3133.0807
 Red. masses --      1.0880                 1.1013                 1.1029
 Frc consts  --      6.2169                 6.3340                 6.3785
 IR Inten    --     31.7364                20.6533                53.5977

                    109                    110                    111
                      A                      A                      A
 Frequencies --   3137.7662              3152.3200              3154.2297
 Red. masses --      1.1034                 1.1033                 1.1015
 Frc consts  --      6.4004                 6.4599                 6.4569
 IR Inten    --     28.5171                16.6498                23.8172

                    112                    113                    114
                      A                      A                      A
 Frequencies --   3190.0496              3197.0388              3204.1469
 Red. masses --      1.0872                 1.0900                 1.0898
 Frc consts  --      6.5184                 6.5641                 6.5923
 IR Inten    --      3.2153                13.6851                 7.3545

                    115                    116                    117
                      A                      A                      A
 Frequencies --   3212.9017              3220.9313              3227.1172
 Red. masses --      1.0936                 1.0958                 1.0915
 Frc consts  --      6.6515                 6.6981                 6.6971
 IR Inten    --     29.7545                12.9944                 1.1187

                    118                    119                    120
                      A                      A                      A
 Frequencies --   3233.7699              3241.1727              3254.4913
 Red. masses --      1.0957                 1.0921                 1.0939
 Frc consts  --      6.7511                 6.7597                 6.8265
 IR Inten    --      0.9436                 2.9459                 4.8731

 - Thermochemistry -
 -------------------
 Temperature   298.150 Kelvin.  Pressure   1.00000 Atm.
 Atom     1 has atomic number  6 and mass  12.00000

 Molecular mass:   322.13174 amu.
 Principal axes and moments of inertia in atomic units:
                           1         2         3
     Eigenvalues --  2888.03209********************
           X            1.00000  -0.00232   0.00162
           Y            0.00226   0.99939   0.03484
           Z           -0.00170  -0.03483   0.99939
 This molecule is an asymmetric top.
 Rotational symmetry number  1.
 Warning -- assumption of classical behavior for rotation
           may cause significant error
 Rotational temperatures (Kelvin)      0.02999     0.00610     0.00596
 Rotational constants (GHZ):           0.62490     0.12706     0.12423
 Zero-point vibrational energy     890909.8 (Joules/Mol)
                                  212.93256 (Kcal/Mol)
 Warning -- explicit consideration of  34 degrees of freedom as
           vibrations may cause significant error
 Vibrational temperatures:     24.90    58.76    67.08   126.77   156.11
          (Kelvin)            166.43   181.50   226.97   245.64   277.11
                              337.85   339.07   351.81   385.77   391.62
                              417.19   447.93   467.91   478.68   503.62
                              531.87   596.91   612.79   626.01   673.26
                              714.35   743.66   770.86   795.50   811.00
                              821.30   837.87   848.05   865.87   935.31
                              941.58  1020.59  1075.89  1108.82  1124.91
                             1140.15  1144.86  1148.32  1169.56  1212.50
                             1228.00  1259.87  1271.59  1281.55  1367.27
                             1384.30  1392.10  1393.75  1399.57  1424.70
                             1437.54  1449.82  1477.79  1489.86  1511.03
                             1525.69  1587.89  1610.52  1641.05  1655.05
                             1662.56  1668.16  1698.48  1703.39  1725.46
                             1757.29  1769.32  1815.33  1853.51  1869.79
                             1902.03  1908.95  1928.73  1940.70  1978.29
                             2021.12  2024.17  2028.24  2053.28  2055.03
                             2111.91  2144.06  2144.85  2146.96  2160.90
                             2163.43  2165.19  2175.46  2189.19  2212.82
                             2219.77  2289.52  2377.17  2408.68  2425.00
                             2426.59  2520.56  4361.42  4403.48  4409.31
                             4480.60  4495.33  4507.80  4514.55  4535.49
                             4538.23  4589.77  4599.83  4610.05  4622.65
                             4634.20  4643.10  4652.67  4663.32  4682.49

 Zero-point correction=                           0.339330 (Hartree/Particle)
 Thermal correction to Energy=                    0.359067
 Thermal correction to Enthalpy=                  0.360011
 Thermal correction to Gibbs Free Energy=         0.290966
 Sum of electronic and zero-point Energies=          -1069.528120
 Sum of electronic and thermal Energies=             -1069.508383
 Sum of electronic and thermal Enthalpies=           -1069.507439
 Sum of electronic and thermal Free Energies=        -1069.576484

                     E (Thermal)             CV                S
                      KCal/Mol        Cal/Mol-Kelvin    Cal/Mol-Kelvin
 Total                  225.318             79.325            145.318
 Electronic               0.000              0.000              0.000
 Translational            0.889              2.981             43.205
 Rotational               0.889              2.981             34.743
 Vibrational            223.540             73.363             67.371
 Vibration     1          0.593              1.986              6.922
 Vibration     2          0.594              1.981              5.218
 Vibration     3          0.595              1.979              4.956
 Vibration     4          0.601              1.958              3.702
 Vibration     5          0.606              1.942              3.296
 Vibration     6          0.608              1.936              3.171
 Vibration     7          0.611              1.927              3.004
 Vibration     8          0.621              1.894              2.577
 Vibration     9          0.626              1.879              2.427
 Vibration    10          0.635              1.850              2.203
 Vibration    11          0.655              1.788              1.842
 Vibration    12          0.655              1.786              1.835
 Vibration    13          0.660              1.772              1.770
 Vibration    14          0.673              1.732              1.608
 Vibration    15          0.675              1.725              1.582
 Vibration    16          0.686              1.692              1.474
 Vibration    17          0.700              1.652              1.355
 Vibration    18          0.709              1.625              1.284
 Vibration    19          0.715              1.610              1.247
 Vibration    20          0.727              1.575              1.166
 Vibration    21          0.742              1.535              1.081
 Vibration    22          0.778              1.438              0.910
 Vibration    23          0.788              1.414              0.872
 Vibration    24          0.796              1.394              0.842
 Vibration    25          0.825              1.321              0.743
 Vibration    26          0.852              1.258              0.667
 Vibration    27          0.872              1.213              0.617
 Vibration    28          0.891              1.171              0.574
 Vibration    29          0.908              1.133              0.538
 Vibration    30          0.919              1.110              0.517
 Vibration    31          0.927              1.094              0.503
 Vibration    32          0.939              1.069              0.481
 Vibration    33          0.947              1.054              0.468
 Vibration    34          0.960              1.028              0.447

 Optimization completed.
    -- Stationary point found.

 1\1\GINC-N302\Freq\RCAM-B3LYP\def2TZVP\C19H18N2O3\ARTD\10-Mar-2024\0\\
 #P Geom=AllCheck Guess=TCheck SCRF=Check GenChk RCAM-B3LYP/def2TZVP Fr
 eq\\TITLE\\0,1\C,-5.7743800878,1.7534681175,-1.470733373\C,-5.02728813
 81,1.0521143374,-0.5267027885\C,-3.9198762905,1.6767003224,0.014843699
 9\C,-3.5528866976,2.9631207082,-0.3752640955\C,-4.2943490363,3.6451972
 434,-1.3083993423\C,-5.4185803386,3.0317867423,-1.8630754888\H,-5.3084
 110662,0.0489693271,-0.2384140799\H,-6.0089069943,3.5546770217,-2.6031
 087087\H,-6.6438295537,1.2814289358,-1.9094472072\H,-4.0123346995,4.64

 Normal termination of Gaussian 16 at Sun Mar 10 16:05:04 2024.
