 Gaussian 16, Revision A.03,
 Gaussian 16:  ES64L-G16RevA.03 25-Dec-2016

 ----------------------------------------------------------------------
 #P PBE1PBE/def2TZVP opt freq=(noraman) scrf=(pcm,solvent=acetonitrile)
  EmpiricalDispersion=GD3BJ gfinput
 ----------------------------------------------------------------------

 -----
 TITLE
 -----
 Symbolic Z-matrix:
 Charge =  0 Multiplicity = 1

 SCF Done:  E(RPBE1PBE) =  -1069.15478388     A.U. after   13 cycles
 SCF Done:  E(RPBE1PBE) =  -1069.16825462     A.U. after   13 cycles
 SCF Done:  E(RPBE1PBE) =  -1069.17303980     A.U. after   12 cycles
 SCF Done:  E(RPBE1PBE) =  -1069.16728838     A.U. after   14 cycles
 SCF Done:  E(RPBE1PBE) =  -1069.17657118     A.U. after   12 cycles
 SCF Done:  E(RPBE1PBE) =  -1069.17739736     A.U. after   11 cycles
 SCF Done:  E(RPBE1PBE) =  -1069.17755263     A.U. after   10 cycles
 SCF Done:  E(RPBE1PBE) =  -1069.17757660     A.U. after   10 cycles
 SCF Done:  E(RPBE1PBE) =  -1069.17758224     A.U. after    9 cycles
 SCF Done:  E(RPBE1PBE) =  -1069.17758400     A.U. after    8 cycles
 SCF Done:  E(RPBE1PBE) =  -1069.17760390     A.U. after    8 cycles
 SCF Done:  E(RPBE1PBE) =  -1069.17760214     A.U. after   10 cycles
 SCF Done:  E(RPBE1PBE) =  -1069.17757439     A.U. after   11 cycles
 SCF Done:  E(RPBE1PBE) =  -1069.17760578     A.U. after   11 cycles
 SCF Done:  E(RPBE1PBE) =  -1069.17760689     A.U. after    8 cycles
 SCF Done:  E(RPBE1PBE) =  -1069.17760671     A.U. after    8 cycles
 SCF Done:  E(RPBE1PBE) =  -1069.17760717     A.U. after    8 cycles
 SCF Done:  E(RPBE1PBE) =  -1069.17760706     A.U. after    8 cycles
 SCF Done:  E(RPBE1PBE) =  -1069.17760727     A.U. after    7 cycles
 Optimization completed on the basis of negligible forces.
    -- Stationary point found.
 Normal termination of Gaussian 16 at Sun Mar 10 08:09:13 2024.

 ----------------------------------------------------------------------
 #P Geom=AllCheck Guess=TCheck SCRF=Check GenChk RPBE1PBE/def2TZVP Freq
 ----------------------------------------------------------------------

 Structure from the checkpoint file:  "sp1_gs_pbe0.chk"
 -----
 TITLE
 -----
 Charge =  0 Multiplicity = 1

                         Standard orientation:
 ---------------------------------------------------------------------
 Center     Atomic      Atomic             Coordinates (Angstroms)
 Number     Number       Type             X           Y           Z
 ---------------------------------------------------------------------
      1          6           0        4.648310   -2.074290   -0.336758
      2          6           0        3.556817   -1.693970   -1.117007
      3          6           0        2.800799   -0.614739   -0.688808
      4          6           0        3.111864    0.065609    0.489494
      5          6           0        4.189503   -0.320102    1.253781
      6          6           0        4.965727   -1.403818    0.835098
      7          1           0        3.310418   -2.235450   -2.022148
      8          1           0        5.813683   -1.723110    1.429163
      9          1           0        5.251760   -2.918292   -0.651622
     10          1           0        4.433617    0.205130    2.171169
     11          7           0        1.686848   -0.043334   -1.290761
     12          6           0        0.998035    0.752594   -0.309578
     13          6           0        2.146867    1.214839    0.649298
     14          6           0        0.939209   -0.756592   -2.293891
     15          1           0        0.134826   -0.119979   -2.662000
     16          1           0        0.507036   -1.688536   -1.908271
     17          6           0        2.818338    2.484091    0.116537
     18          1           0        3.114040    2.373546   -0.928698
     19          1           0        3.716804    2.680247    0.703756
     20          1           0        2.158940    3.350130    0.208101
     21          6           0        1.665977    1.451979    2.070226
     22          1           0        1.275125    0.542817    2.524096
     23          1           0        0.883692    2.215123    2.087986
     24          1           0        2.496315    1.813583    2.680207
     25          8           0        0.158276   -0.142433    0.483194
     26          6           0       -1.164171   -0.199125    0.354848
     27          6           0        0.202582    1.845138   -0.934904
     28          6           0       -1.128758    1.853274   -0.956299
     29          6           0       -1.883342    0.785796   -0.341381
     30          1           0        0.769940    2.624299   -1.424944
     31          1           0       -1.670060    2.653348   -1.448753
     32          6           0       -3.262995    0.689382   -0.405856
     33          6           0       -1.824087   -1.259813    0.975083
     34          6           0       -3.196565   -1.347249    0.905708
     35          6           0       -3.904681   -0.370766    0.213271
     36          1           0       -3.839577    1.436731   -0.934609
     37          1           0       -1.242572   -2.002410    1.506302
     38          1           0       -3.727137   -2.161133    1.379408
     39          7           0       -5.344673   -0.462305    0.139020
     40          8           0       -5.946980    0.401645   -0.473490
     41          8           0       -5.892103   -1.399465    0.692402
     42          1           0        1.587797   -0.997971   -3.136965
 ---------------------------------------------------------------------

 SCF Done:  E(RPBE1PBE) =  -1069.17760727     A.U. after    1 cycles

 The electronic state is 1-A.
 Alpha  occ. eigenvalues --  -19.26042 -19.24217 -19.24211 -14.62779 -14.41230
 Alpha  occ. eigenvalues --  -10.33854 -10.31639 -10.28514 -10.26256 -10.25782
 Alpha  occ. eigenvalues --  -10.25659 -10.25626 -10.25557 -10.24944 -10.24814
 Alpha  occ. eigenvalues --  -10.24445 -10.24286 -10.22896 -10.22825 -10.22740
 Alpha  occ. eigenvalues --  -10.22524 -10.22028 -10.21676 -10.21287  -1.27667
 Alpha  occ. eigenvalues --   -1.13237  -1.09494  -1.00662  -0.92479  -0.88440
 Alpha  occ. eigenvalues --   -0.86682  -0.85717  -0.82905  -0.79514  -0.77238
 Alpha  occ. eigenvalues --   -0.76574  -0.75554  -0.72260  -0.70861  -0.68056
 Alpha  occ. eigenvalues --   -0.67055  -0.65262  -0.63836  -0.61343  -0.59298
 Alpha  occ. eigenvalues --   -0.58644  -0.58148  -0.56689  -0.55871  -0.54511
 Alpha  occ. eigenvalues --   -0.53083  -0.52222  -0.51484  -0.49549  -0.48405
 Alpha  occ. eigenvalues --   -0.47479  -0.46936  -0.46275  -0.45546  -0.45268
 Alpha  occ. eigenvalues --   -0.44959  -0.44527  -0.43858  -0.43097  -0.42201
 Alpha  occ. eigenvalues --   -0.41341  -0.40701  -0.39888  -0.39045  -0.38715
 Alpha  occ. eigenvalues --   -0.38342  -0.37339  -0.36260  -0.35690  -0.34800
 Alpha  occ. eigenvalues --   -0.34214  -0.33936  -0.33848  -0.33274  -0.31939
 Alpha  occ. eigenvalues --   -0.31736  -0.27965  -0.26763  -0.24779  -0.22050
 Alpha virt. eigenvalues --   -0.08992  -0.05294  -0.01057  -0.00420   0.00433
 Alpha virt. eigenvalues --    0.04089   0.04382   0.06352   0.06642   0.06983
 Alpha virt. eigenvalues --    0.07201   0.08317   0.09042   0.09711   0.10308

 Mulliken charges:
               1
     1  C   -0.118962
     2  C   -0.316329
     3  C    0.136403
     4  C   -0.102342
     5  C   -0.237640
     6  C   -0.167919
     7  H    0.137736
     8  H    0.133587
     9  H    0.136330
    10  H    0.133045
    11  N   -0.045999
    12  C    0.418945
    13  C    0.253404
    14  C   -0.364971
    15  H    0.162404
    16  H    0.140241
    17  C   -0.471521
    18  H    0.152900
    19  H    0.144479
    20  H    0.148203
    21  C   -0.420812
    22  H    0.142844
    23  H    0.138673
    24  H    0.142232
    25  O   -0.235059
    26  C    0.240573
    27  C   -0.318361
    28  C   -0.238630
    29  C    0.247944
    30  H    0.162791
    31  H    0.147709
    32  C   -0.314994
    33  C   -0.309184
    34  C   -0.133902
    35  C    0.103350
    36  H    0.164321
    37  H    0.137183
    38  H    0.163757
    39  N    0.472071
    40  O   -0.360046
    41  O   -0.361162
    42  H    0.156708
 Sum of Mulliken charges =  -0.00000

 Dipole moment (field-independent basis, Debye):
    X=              6.3958    Y=              2.1336    Z=             -1.1970  Tot=              6.8478
 Quadrupole moment (field-independent basis, Debye-Ang):
   XX=           -191.4750   YY=           -130.5019   ZZ=           -132.0306
   XY=             -4.0338   XZ=              2.8507   YZ=              0.7736

  Exact polarizability: 489.138  -8.576 310.600  17.596 -19.670 268.068
 Approx polarizability: 495.757  -8.859 357.286  23.686 -32.709 311.325

                      1                      2                      3
                      A                      A                      A
 Frequencies --     12.5491                40.0954                48.3786
 Red. masses --      5.8353                 5.7078                 9.4076
 Frc consts  --      0.0005                 0.0054                 0.0130
 IR Inten    --      0.8093                 0.3773                 0.1480

                      4                      5                      6
                      A                      A                      A
 Frequencies --     87.9916               103.0510               114.5456
 Red. masses --      4.7030                 5.3844                 3.5669
 Frc consts  --      0.0215                 0.0337                 0.0276
 IR Inten    --      2.1526                 0.6442                 3.0976

                      7                      8                      9
                      A                      A                      A
 Frequencies --    124.9974               157.3452               174.1357
 Red. masses --      3.1677                 5.6525                 1.6673
 Frc consts  --      0.0292                 0.0825                 0.0298
 IR Inten    --      3.0492                 4.9631                 0.5507

                     10                     11                     12
                      A                      A                      A
 Frequencies --    193.1445               215.1871               229.6744
 Red. masses --      1.8845                 2.2836                 1.7898
 Frc consts  --      0.0414                 0.0623                 0.0556
 IR Inten    --      0.3491                 6.6470                 1.5503

                     13                     14                     15
                      A                      A                      A
 Frequencies --    233.2658               262.4679               268.3304
 Red. masses --      2.9041                 2.4125                 3.7427
 Frc consts  --      0.0931                 0.0979                 0.1588
 IR Inten    --      0.4555                 1.5054                 2.3592

                     16                     17                     18
                      A                      A                      A
 Frequencies --    289.2831               316.6363               323.1913
 Red. masses --      2.4254                 1.8844                 3.4136
 Frc consts  --      0.1196                 0.1113                 0.2101
 IR Inten    --      1.2672                 0.9468                 0.3573

                     19                     20                     21
                      A                      A                      A
 Frequencies --    329.8555               338.4030               372.8205
 Red. masses --      1.9551                 3.0816                 3.7528
 Frc consts  --      0.1253                 0.2079                 0.3073
 IR Inten    --      1.5971                 1.5333                 1.2723

                     22                     23                     24
                      A                      A                      A
 Frequencies --    414.3540               419.9496               432.6377
 Red. masses --      5.6022                 3.1965                 5.3531
 Frc consts  --      0.5667                 0.3321                 0.5903
 IR Inten    --      1.0255                 4.7157                14.8248

                     25                     26                     27
                      A                      A                      A
 Frequencies --    457.4951               488.4631               511.3872
 Red. masses --      3.6264                 3.3695                 4.6338
 Frc consts  --      0.4472                 0.4737                 0.7140
 IR Inten    --      5.0131                 6.0009                26.9325

                     28                     29                     30
                      A                      A                      A
 Frequencies --    534.4027               551.5717               559.2305
 Red. masses --      6.1839                 5.6222                 4.4269
 Frc consts  --      1.0405                 1.0078                 0.8157
 IR Inten    --      7.8884                 2.4891                 9.5695

                     31                     32                     33
                      A                      A                      A
 Frequencies --    563.0349               578.7583               583.6229
 Red. masses --      3.5007                 5.1144                 5.4589
 Frc consts  --      0.6539                 1.0093                 1.0955
 IR Inten    --      1.0345                 2.7362                 9.6773

                     34                     35                     36
                      A                      A                      A
 Frequencies --    592.8167               639.6496               648.9493
 Red. masses --      4.1241                 4.2245                 4.1664
 Frc consts  --      0.8539                 1.0184                 1.0338
 IR Inten    --      3.1827                 3.8452                 1.4270

                     37                     38                     39
                      A                      A                      A
 Frequencies --    700.9209               738.9514               758.2799
 Red. masses --      6.6681                 2.4844                 1.2642
 Frc consts  --      1.9301                 0.7993                 0.4283
 IR Inten    --     38.6134                 9.6626               110.5849

                     40                     41                     42
                      A                      A                      A
 Frequencies --    773.8514               782.3529               788.2098
 Red. masses --      4.4248                 3.8512                 3.3178
 Frc consts  --      1.5612                 1.3888                 1.2145
 IR Inten    --     11.6924                 8.9139                54.0463

                     43                     44                     45
                      A                      A                      A
 Frequencies --    795.9198               798.5251               838.8272
 Red. masses --      4.8229                 2.2659                 3.1931
 Frc consts  --      1.8001                 0.8513                 1.3238
 IR Inten    --     21.5540                10.1656                26.5245

                     46                     47                     48
                      A                      A                      A
 Frequencies --    843.8397               862.5232               869.7750
 Red. masses --      5.6245                 2.0764                 1.6227
 Frc consts  --      2.3597                 0.9101                 0.7233
 IR Inten    --    222.8262                31.2806                 6.5640

                     49                     50                     51
                      A                      A                      A
 Frequencies --    875.8480               942.5818               945.2065
 Red. masses --      3.6819                 1.6767                 1.5351
 Frc consts  --      1.6641                 0.8777                 0.8080
 IR Inten    --      5.4398                10.2451                29.2854

                     52                     53                     54
                      A                      A                      A
 Frequencies --    949.0788               954.8662               962.4247
 Red. masses --      1.8556                 3.0526                 1.6334
 Frc consts  --      0.9848                 1.6398                 0.8914
 IR Inten    --     11.8657               225.0227                29.9883

                     55                     56                     57
                      A                      A                      A
 Frequencies --    974.8420               978.2872               983.9449
 Red. masses --      1.2874                 3.4460                 1.3499
 Frc consts  --      0.7208                 1.9431                 0.7700
 IR Inten    --     13.9195               427.2592                 1.2232

                     58                     59                     60
                      A                      A                      A
 Frequencies --   1010.3908              1025.8841              1036.5184
 Red. masses --      1.3396                 1.8030                 2.1865
 Frc consts  --      0.8057                 1.1180                 1.3840
 IR Inten    --     12.3344                86.0310                42.9990

                     61                     62                     63
                      A                      A                      A
 Frequencies --   1054.0122              1090.2169              1114.1999
 Red. masses --      2.1112                 2.9682                 1.6914
 Frc consts  --      1.3819                 2.0786                 1.2371
 IR Inten    --     52.6557                10.3652               422.6699

                     64                     65                     66
                      A                      A                      A
 Frequencies --   1126.4070              1140.9644              1143.5994
 Red. masses --      1.7974                 1.4989                 1.3475
 Frc consts  --      1.3437                 1.1496                 1.0383
 IR Inten    --     40.9118                20.5398                16.2742

                     67                     68                     69
                      A                      A                      A
 Frequencies --   1150.3556              1169.2868              1182.6960
 Red. masses --      1.3817                 1.2526                 2.1009
 Frc consts  --      1.0772                 1.0091                 1.7314
 IR Inten    --     21.7241                 1.7719                16.9631

                     70                     71                     72
                      A                      A                      A
 Frequencies --   1194.5655              1212.9954              1220.1777
 Red. masses --      1.8676                 2.3669                 2.0059
 Frc consts  --      1.5702                 2.0518                 1.7596
 IR Inten    --     30.5846                62.2260                26.2559

                     73                     74                     75
                      A                      A                      A
 Frequencies --   1257.0997              1272.4944              1290.5403
 Red. masses --      2.4766                 1.5650                 2.8322
 Frc consts  --      2.3060                 1.4931                 2.7792
 IR Inten    --     63.2599                16.7659                31.2427

                     76                     77                     78
                      A                      A                      A
 Frequencies --   1309.2625              1321.7857              1338.7569
 Red. masses --      4.0917                 1.9083                 3.1273
 Frc consts  --      4.1325                 1.9644                 3.3023
 IR Inten    --     11.8642               390.7057               440.5153

                     79                     80                     81
                      A                      A                      A
 Frequencies --   1356.7885              1385.5436              1397.6858
 Red. masses --      5.8255                 1.2716                 9.7474
 Frc consts  --      6.3184                 1.4382                11.2191
 IR Inten    --    119.0623                24.6252              1306.0570

                     82                     83                     84
                      A                      A                      A
 Frequencies --   1405.2913              1408.2767              1414.5541
 Red. masses --      1.3390                 2.8954                 3.9281
 Frc consts  --      1.5580                 3.3832                 4.6309
 IR Inten    --      7.6187                 1.3524                35.4427

                     85                     86                     87
                      A                      A                      A
 Frequencies --   1424.3590              1448.6435              1470.2669
 Red. masses --      4.0075                 1.2335                 1.0537
 Frc consts  --      4.7902                 1.5252                 1.3421
 IR Inten    --     12.9764                10.4706                 4.1442

                     88                     89                     90
                      A                      A                      A
 Frequencies --   1473.5616              1476.5502              1486.1174
 Red. masses --      1.0523                 1.0612                 1.0952
 Frc consts  --      1.3462                 1.3632                 1.4251
 IR Inten    --      7.6000                40.1649                 5.4086

                     91                     92                     93
                      A                      A                      A
 Frequencies --   1489.4125              1494.2727              1497.0768
 Red. masses --      1.2108                 1.7141                 1.6038
 Frc consts  --      1.5825                 2.2550                 2.1178
 IR Inten    --     10.2377                64.9089                36.3684

                     94                     95                     96
                      A                      A                      A
 Frequencies --   1507.6942              1528.1162              1532.0361
 Red. masses --      1.9587                 3.5361                 3.4237
 Frc consts  --      2.6233                 4.8650                 4.7347
 IR Inten    --     70.1874               284.4965                80.6531

                     97                     98                     99
                      A                      A                      A
 Frequencies --   1598.3655              1640.8671              1661.4935
 Red. masses --     12.1889                 7.8773                 7.2714
 Frc consts  --     18.3471                12.4961                11.8267
 IR Inten    --    386.6366               197.1450                 3.8143

                    100                    101                    102
                      A                      A                      A
 Frequencies --   1671.6757              1673.9281              1726.7491
 Red. masses --      7.3163                 7.8701                 7.7781
 Frc consts  --     12.0461                12.9929                13.6641
 IR Inten    --    154.3064               116.8477                50.9138

                    103                    104                    105
                      A                      A                      A
 Frequencies --   3017.3160              3051.5775              3057.1368
 Red. masses --      1.0484                 1.0350                 1.0376
 Frc consts  --      5.6239                 5.6785                 5.7138
 IR Inten    --     83.1660                27.0974                38.5597

                    106                    107                    108
                      A                      A                      A
 Frequencies --   3108.8782              3125.6414              3131.5037
 Red. masses --      1.0874                 1.1013                 1.1023
 Frc consts  --      6.1924                 6.3391                 6.3687
 IR Inten    --     34.5469                20.5431                48.7972

                    109                    110                    111
                      A                      A                      A
 Frequencies --   3138.7080              3151.1771              3157.8315
 Red. masses --      1.1025                 1.1023                 1.1009
 Frc consts  --      6.3991                 6.4492                 6.4681
 IR Inten    --     29.4619                 9.8127                23.4243

                    112                    113                    114
                      A                      A                      A
 Frequencies --   3186.3563              3193.5092              3199.2317
 Red. masses --      1.0865                 1.0893                 1.0902
 Frc consts  --      6.4993                 6.5456                 6.5740
 IR Inten    --      4.5534                13.5887                 8.5187

                    115                    116                    117
                      A                      A                      A
 Frequencies --   3209.4661              3216.9370              3223.1393
 Red. masses --      1.0930                 1.0966                 1.0908
 Frc consts  --      6.6333                 6.6865                 6.6764
 IR Inten    --     29.1543                15.7435                 1.1943

                    118                    119                    120
                      A                      A                      A
 Frequencies --   3233.8542              3237.0219              3248.1452
 Red. masses --      1.0917                 1.0940                 1.0939
 Frc consts  --      6.7269                 6.7540                 6.7996
 IR Inten    --      2.7579                 0.7944                 4.3400

 - Thermochemistry -
 -------------------
 Temperature   298.150 Kelvin.  Pressure   1.00000 Atm.
 Atom     1 has atomic number  6 and mass  12.00000

 Molecular mass:   322.13174 amu.
 Principal axes and moments of inertia in atomic units:
                           1         2         3
     Eigenvalues --  2929.35126********************
           X            0.99999   0.00004   0.00342
           Y           -0.00018   0.99917   0.04075
           Z           -0.00341  -0.04075   0.99916
 This molecule is an asymmetric top.
 Rotational symmetry number  1.
 Warning -- assumption of classical behavior for rotation
           may cause significant error
 Rotational temperatures (Kelvin)      0.02957     0.00617     0.00590
 Rotational constants (GHZ):           0.61609     0.12865     0.12302
 Zero-point vibrational energy     885533.8 (Joules/Mol)
                                  211.64767 (Kcal/Mol)
 Warning -- explicit consideration of  34 degrees of freedom as
           vibrations may cause significant error
 Vibrational temperatures:     18.06    57.69    69.61   126.60   148.27
          (Kelvin)            164.81   179.84   226.38   250.54   277.89
                              309.61   330.45   335.62   377.63   386.07
                              416.21   455.57   465.00   474.59   486.89
                              536.41   596.16   604.21   622.47   658.23
                              702.79   735.77   768.89   793.59   804.61
                              810.08   832.70   839.70   852.93   920.31
                              933.69  1008.47  1063.19  1091.00  1113.40
                             1125.63  1134.06  1145.15  1148.90  1206.89
                             1214.10  1240.98  1251.41  1260.15  1356.17
                             1359.94  1365.51  1373.84  1384.71  1402.58
                             1407.54  1415.68  1453.73  1476.02  1491.32
                             1516.49  1568.58  1603.09  1620.65  1641.59
                             1645.38  1655.11  1682.34  1701.64  1718.71
                             1745.23  1755.56  1808.69  1830.84  1856.80
                             1883.74  1901.75  1926.17  1952.12  1993.49
                             2010.96  2021.90  2026.20  2035.23  2049.33
                             2084.27  2115.39  2120.13  2124.43  2138.19
                             2142.93  2149.93  2153.96  2169.24  2198.62
                             2204.26  2299.69  2360.84  2390.52  2405.17
                             2408.41  2484.41  4341.24  4390.54  4398.54
                             4472.98  4497.10  4505.54  4515.90  4533.84
                             4543.42  4584.46  4594.75  4602.98  4617.71
                             4628.45  4637.38  4652.79  4657.35  4673.36

 Zero-point correction=                           0.337282 (Hartree/Particle)
 Thermal correction to Energy=                    0.357243
 Thermal correction to Enthalpy=                  0.358187
 Thermal correction to Gibbs Free Energy=         0.288434
 Sum of electronic and zero-point Energies=          -1068.840325
 Sum of electronic and thermal Energies=             -1068.820364
 Sum of electronic and thermal Enthalpies=           -1068.819420
 Sum of electronic and thermal Free Energies=        -1068.889173

                     E (Thermal)             CV                S
                      KCal/Mol        Cal/Mol-Kelvin    Cal/Mol-Kelvin
 Total                  224.173             80.147            146.807
 Electronic               0.000              0.000              0.000
 Translational            0.889              2.981             43.205
 Rotational               0.889              2.981             34.754
 Vibrational            222.396             74.186             68.848
 Vibration     1          0.593              1.987              7.560
 Vibration     2          0.594              1.981              5.254
 Vibration     3          0.595              1.978              4.883
 Vibration     4          0.601              1.958              3.704
 Vibration     5          0.605              1.947              3.396
 Vibration     6          0.607              1.937              3.190
 Vibration     7          0.610              1.928              3.022
 Vibration     8          0.621              1.894              2.581
 Vibration     9          0.627              1.874              2.390
 Vibration    10          0.635              1.849              2.197
 Vibration    11          0.645              1.818              1.999
 Vibration    12          0.652              1.796              1.881
 Vibration    13          0.654              1.790              1.854
 Vibration    14          0.670              1.742              1.645
 Vibration    15          0.673              1.731              1.607
 Vibration    16          0.686              1.694              1.478
 Vibration    17          0.704              1.642              1.327
 Vibration    18          0.708              1.629              1.294
 Vibration    19          0.713              1.616              1.261
 Vibration    20          0.719              1.599              1.220
 Vibration    21          0.744              1.528              1.068
 Vibration    22          0.778              1.439              0.911
 Vibration    23          0.783              1.427              0.892
 Vibration    24          0.794              1.399              0.850
 Vibration    25          0.816              1.344              0.773
 Vibration    26          0.844              1.276              0.688
 Vibration    27          0.866              1.225              0.630
 Vibration    28          0.889              1.174              0.577
 Vibration    29          0.907              1.136              0.541
 Vibration    30          0.915              1.120              0.525
 Vibration    31          0.919              1.111              0.518
 Vibration    32          0.935              1.077              0.488
 Vibration    33          0.941              1.067              0.479
 Vibration    34          0.950              1.047              0.462

                           ! Non-Optimized Parameters !
 Normal termination of Gaussian 16 at Sun Mar 10 10:09:39 2024.
