 Gaussian 16, Revision A.03,
 Gaussian 16:  ES64L-G16RevA.03 25-Dec-2016

 ----------------------------------------------------------------------
 #P M062X/def2TZVP opt freq=(noraman) scrf=(pcm,solvent=chloroform) gfi
 nput integral=ultrafine
 ----------------------------------------------------------------------

 -----
 TITLE
 -----
 Symbolic Z-matrix:
 Charge =  0 Multiplicity = 1

 SCF Done:  E(RM062X) =  -1069.89504615     A.U. after   14 cycles
 SCF Done:  E(RM062X) =  -1069.90836340     A.U. after   13 cycles
 SCF Done:  E(RM062X) =  -1069.91299377     A.U. after   13 cycles
 SCF Done:  E(RM062X) =  -1069.90745743     A.U. after   13 cycles
 SCF Done:  E(RM062X) =  -1069.91630716     A.U. after   13 cycles
 SCF Done:  E(RM062X) =  -1069.91695998     A.U. after   12 cycles
 SCF Done:  E(RM062X) =  -1069.91709452     A.U. after   11 cycles
 SCF Done:  E(RM062X) =  -1069.91712961     A.U. after   11 cycles
 SCF Done:  E(RM062X) =  -1069.91715095     A.U. after   11 cycles
 SCF Done:  E(RM062X) =  -1069.91717226     A.U. after   11 cycles
 SCF Done:  E(RM062X) =  -1069.91734255     A.U. after   10 cycles
 SCF Done:  E(RM062X) =  -1069.91735849     A.U. after   10 cycles
 SCF Done:  E(RM062X) =  -1069.91735931     A.U. after    9 cycles
 SCF Done:  E(RM062X) =  -1069.91735937     A.U. after    8 cycles
 SCF Done:  E(RM062X) =  -1069.91735933     A.U. after    8 cycles
 SCF Done:  E(RM062X) =  -1069.91735943     A.U. after    7 cycles
 SCF Done:  E(RM062X) =  -1069.91735934     A.U. after    8 cycles
 SCF Done:  E(RM062X) =  -1069.91735944     A.U. after    5 cycles
 SCF Done:  E(RM062X) =  -1069.91735934     A.U. after    8 cycles
 Optimization completed on the basis of negligible forces.
    -- Stationary point found.
 Normal termination of Gaussian 16 at Sun Mar 10 09:20:23 2024.

 --------------------------------------------------------------------
 #P Geom=AllCheck Guess=TCheck SCRF=Check GenChk RM062X/def2TZVP Freq
 --------------------------------------------------------------------

 Structure from the checkpoint file:  "sp1_gs_m062x.chk"
 -----
 TITLE
 -----
 Charge =  0 Multiplicity = 1

                         Standard orientation:
 ---------------------------------------------------------------------
 Center     Atomic      Atomic             Coordinates (Angstroms)
 Number     Number       Type             X           Y           Z
 ---------------------------------------------------------------------
      1          6           0        4.487905   -2.230029   -0.359018
      2          6           0        3.373818   -1.828741   -1.098323
      3          6           0        2.711902   -0.680852   -0.696328
      4          6           0        3.130509    0.043961    0.420050
      5          6           0        4.229306   -0.360206    1.144054
      6          6           0        4.915571   -1.512152    0.747711
      7          1           0        3.041045   -2.405122   -1.951183
      8          1           0        5.777088   -1.847658    1.309274
      9          1           0        5.019962   -3.125562   -0.653791
     10          1           0        4.555316    0.200799    2.012388
     11          7           0        1.593449   -0.072259   -1.275743
     12          6           0        1.006008    0.803128   -0.282145
     13          6           0        2.236758    1.254019    0.574985
     14          6           0        0.718954   -0.855817   -2.122926
     15          1           0       -0.089578   -0.224682   -2.488793
     16          1           0        0.292999   -1.713841   -1.589544
     17          6           0        2.938895    2.459362   -0.066086
     18          1           0        3.137284    2.288138   -1.125169
     19          1           0        3.892691    2.616295    0.437746
     20          1           0        2.343873    3.367497    0.043898
     21          6           0        1.864727    1.585998    2.013797
     22          1           0        1.482715    0.716052    2.542686
     23          1           0        1.107291    2.372555    2.039141
     24          1           0        2.746970    1.953912    2.539765
     25          8           0        0.179877    0.002581    0.608091
     26          6           0       -1.145182   -0.106679    0.441271
     27          6           0        0.214080    1.905598   -0.915639
     28          6           0       -1.115833    1.908918   -0.936493
     29          6           0       -1.866156    0.834131   -0.308049
     30          1           0        0.780546    2.677318   -1.416456
     31          1           0       -1.664439    2.698391   -1.435417
     32          6           0       -3.242439    0.700878   -0.409168
     33          6           0       -1.793026   -1.159563    1.085765
     34          6           0       -3.162751   -1.285860    0.980870
     35          6           0       -3.868336   -0.353676    0.230858
     36          1           0       -3.823659    1.412950   -0.978185
     37          1           0       -1.206563   -1.863139    1.660075
     38          1           0       -3.688568   -2.093317    1.468111
     39          7           0       -5.318366   -0.487826    0.116518
     40          8           0       -5.916413    0.330901   -0.550533
     41          8           0       -5.852869   -1.411346    0.694070
     42          1           0        1.276427   -1.221595   -2.984125
 ---------------------------------------------------------------------

 SCF Done:  E(RM062X) =  -1069.91735934     A.U. after    1 cycles

 The electronic state is 1-A.
 Alpha  occ. eigenvalues --  -19.67727 -19.66768 -19.66751 -15.00483 -14.77149
 Alpha  occ. eigenvalues --  -10.65471 -10.63351 -10.60387 -10.57772 -10.57597
 Alpha  occ. eigenvalues --  -10.57400 -10.57271 -10.56810 -10.56722 -10.56578
 Alpha  occ. eigenvalues --  -10.56167 -10.56037 -10.54436 -10.54250 -10.54242
 Alpha  occ. eigenvalues --  -10.54095 -10.53565 -10.53314 -10.52878  -1.37898
 Alpha  occ. eigenvalues --   -1.22443  -1.19009  -1.08378  -1.00510  -0.96093
 Alpha  occ. eigenvalues --   -0.94262  -0.93319  -0.90340  -0.86870  -0.84409
 Alpha  occ. eigenvalues --   -0.83759  -0.82552  -0.79369  -0.77901  -0.74653
 Alpha  occ. eigenvalues --   -0.73758  -0.71890  -0.70417  -0.67610  -0.66250
 Alpha  occ. eigenvalues --   -0.64956  -0.64052  -0.63705  -0.62136  -0.60703
 Alpha  occ. eigenvalues --   -0.59402  -0.58000  -0.57195  -0.55109  -0.54366
 Alpha  occ. eigenvalues --   -0.53346  -0.52456  -0.51823  -0.51121  -0.50696
 Alpha  occ. eigenvalues --   -0.50523  -0.50204  -0.49184  -0.48506  -0.47441
 Alpha  occ. eigenvalues --   -0.46788  -0.46114  -0.45225  -0.44375  -0.44095
 Alpha  occ. eigenvalues --   -0.43601  -0.42196  -0.41109  -0.40594  -0.40137
 Alpha  occ. eigenvalues --   -0.39793  -0.39295  -0.38968  -0.38804  -0.37904
 Alpha  occ. eigenvalues --   -0.36660  -0.32316  -0.30874  -0.29067  -0.26225
 Alpha virt. eigenvalues --   -0.05420  -0.02634   0.01806   0.02666   0.03223
 Alpha virt. eigenvalues --    0.06138   0.07430   0.08044   0.08502   0.08983
 Alpha virt. eigenvalues --    0.09132   0.10151   0.11079   0.11656   0.12045

 Mulliken charges:
               1
     1  C   -0.161456
     2  C   -0.244873
     3  C    0.145596
     4  C   -0.044225
     5  C   -0.202983
     6  C   -0.194511
     7  H    0.170435
     8  H    0.155083
     9  H    0.156219
    10  H    0.166073
    11  N   -0.133165
    12  C    0.195432
    13  C    0.118886
    14  C   -0.434492
    15  H    0.173980
    16  H    0.184686
    17  C   -0.524058
    18  H    0.183823
    19  H    0.166469
    20  H    0.173212
    21  C   -0.474003
    22  H    0.171391
    23  H    0.166124
    24  H    0.163217
    25  O   -0.281925
    26  C    0.129830
    27  C   -0.225822
    28  C   -0.187924
    29  C    0.165583
    30  H    0.192077
    31  H    0.166180
    32  C   -0.171805
    33  C   -0.230930
    34  C   -0.129064
    35  C   -0.004594
    36  H    0.199420
    37  H    0.176297
    38  H    0.197873
    39  N    0.500121
    40  O   -0.370513
    41  O   -0.369263
    42  H    0.167599
 Sum of Mulliken charges =   0.00000

 Dipole moment (field-independent basis, Debye):
    X=              5.7048    Y=              1.7947    Z=             -0.7960  Tot=              6.0332
 Quadrupole moment (field-independent basis, Debye-Ang):
   XX=           -185.8675   YY=           -131.0416   ZZ=           -134.8764
   XY=             -4.2573   XZ=              3.0808   YZ=              0.4836

  Exact polarizability: 418.297  -6.685 279.304  18.829 -16.470 234.998
 Approx polarizability: 372.510  -5.435 300.521  21.892 -24.298 263.726

                      1                      2                      3
                      A                      A                      A
 Frequencies --     23.2388                38.0854                47.6995
 Red. masses --      6.0602                10.3991                 5.6294
 Frc consts  --      0.0019                 0.0089                 0.0075
 IR Inten    --      0.7248                 0.1019                 0.2875

                      4                      5                      6
                      A                      A                      A
 Frequencies --     91.1712               107.5015               120.0167
 Red. masses --      4.3189                 5.7083                 3.6445
 Frc consts  --      0.0212                 0.0389                 0.0309
 IR Inten    --      1.2431                 1.2794                 1.4958

                      7                      8                      9
                      A                      A                      A
 Frequencies --    133.6744               159.7103               186.2234
 Red. masses --      3.2066                 5.9966                 3.5076
 Frc consts  --      0.0338                 0.0901                 0.0717
 IR Inten    --      2.1693                 5.1670                 0.1876

                     10                     11                     12
                      A                      A                      A
 Frequencies --    217.6248               220.1843               235.5548
 Red. masses --      1.5195                 3.2113                 1.8346
 Frc consts  --      0.0424                 0.0917                 0.0600
 IR Inten    --      0.1936                 7.9663                 0.3019

                     13                     14                     15
                      A                      A                      A
 Frequencies --    245.4044               273.1456               276.0774
 Red. masses --      1.7824                 2.0524                 3.8386
 Frc consts  --      0.0632                 0.0902                 0.1724
 IR Inten    --      0.2134                 0.7474                 2.8074

                     16                     17                     18
                      A                      A                      A
 Frequencies --    303.3737               326.3300               329.2951
 Red. masses --      2.4539                 2.9136                 3.7508
 Frc consts  --      0.1331                 0.1828                 0.2396
 IR Inten    --      1.0999                 1.2607                 0.5872

                     19                     20                     21
                      A                      A                      A
 Frequencies --    342.6410               348.6063               379.8864
 Red. masses --      3.2477                 1.2869                 3.6377
 Frc consts  --      0.2246                 0.0921                 0.3093
 IR Inten    --      1.1210                 0.7015                 1.2297

                     22                     23                     24
                      A                      A                      A
 Frequencies --    418.1483               422.6546               439.1093
 Red. masses --      5.4215                 3.1271                 5.2727
 Frc consts  --      0.5585                 0.3291                 0.5990
 IR Inten    --      0.1503                 3.0513                13.1013

                     25                     26                     27
                      A                      A                      A
 Frequencies --    458.1171               492.1899               514.8840
 Red. masses --      3.6065                 3.5657                 4.4348
 Frc consts  --      0.4460                 0.5089                 0.6927
 IR Inten    --      4.2227                 4.4274                16.6150

                     28                     29                     30
                      A                      A                      A
 Frequencies --    538.8107               551.6911               559.5988
 Red. masses --      6.2092                 5.7463                 4.2290
 Frc consts  --      1.0621                 1.0305                 0.7803
 IR Inten    --      3.5915                 2.7507                 6.7967

                     31                     32                     33
                      A                      A                      A
 Frequencies --    564.3149               585.4951               586.7838
 Red. masses --      3.6525                 5.4235                 4.2835
 Frc consts  --      0.6853                 1.0954                 0.8690
 IR Inten    --      1.6105                 7.9910                 2.4465

                     34                     35                     36
                      A                      A                      A
 Frequencies --    602.5279               640.8800               650.4289
 Red. masses --      4.5043                 4.2374                 4.2419
 Frc consts  --      0.9635                 1.0254                 1.0573
 IR Inten    --      3.0897                 3.2261                 3.7011

                     37                     38                     39
                      A                      A                      A
 Frequencies --    702.4665               741.1970               771.4102
 Red. masses --      6.6780                 2.5442                 1.3001
 Frc consts  --      1.9415                 0.8235                 0.4558
 IR Inten    --     28.6641                 8.2590                87.2987

                     40                     41                     42
                      A                      A                      A
 Frequencies --    779.4433               791.9005               793.0347
 Red. masses --      3.8300                 3.7643                 4.1622
 Frc consts  --      1.3709                 1.3908                 1.5423
 IR Inten    --      0.8193                15.8318                40.4785

                     43                     44                     45
                      A                      A                      A
 Frequencies --    800.9435               801.7375               840.9900
 Red. masses --      4.7540                 2.3871                 2.7516
 Frc consts  --      1.7969                 0.9040                 1.1466
 IR Inten    --     22.8279                 3.9913                34.3782

                     46                     47                     48
                      A                      A                      A
 Frequencies --    856.9284               873.2896               881.6706
 Red. masses --      5.5296                 2.1599                 3.0811
 Frc consts  --      2.3924                 0.9705                 1.4111
 IR Inten    --     93.2086                13.8013                28.6398

                     49                     50                     51
                      A                      A                      A
 Frequencies --    888.5129               947.8439               955.5331
 Red. masses --      1.6237                 2.3822                 1.5460
 Frc consts  --      0.7552                 1.2609                 0.8317
 IR Inten    --      1.7808                44.3255                22.0579

                     52                     53                     54
                      A                      A                      A
 Frequencies --    961.7446               963.8655               967.8470
 Red. masses --      2.2384                 1.8971                 1.5147
 Frc consts  --      1.2199                 1.0384                 0.8360
 IR Inten    --      6.4511                34.7867                 1.9196

                     55                     56                     57
                      A                      A                      A
 Frequencies --    986.5596              1001.0768              1001.6578
 Red. masses --      3.2344                 1.3522                 1.2943
 Frc consts  --      1.8548                 0.7984                 0.7651
 IR Inten    --    447.6698                 0.3578                 1.8042

                     58                     59                     60
                      A                      A                      A
 Frequencies --   1025.0879              1038.3229              1041.2021
 Red. masses --      1.3364                 1.6911                 2.5070
 Frc consts  --      0.8274                 1.0742                 1.6013
 IR Inten    --     14.0769               125.6337                15.1713

                     61                     62                     63
                      A                      A                      A
 Frequencies --   1057.6702              1088.8862              1121.7352
 Red. masses --      2.1459                 3.0250                 1.8058
 Frc consts  --      1.4144                 2.1132                 1.3387
 IR Inten    --     32.9032                 7.2914               269.1075

                     64                     65                     66
                      A                      A                      A
 Frequencies --   1130.5375              1144.9788              1150.5072
 Red. masses --      1.8106                 1.4874                 1.3557
 Frc consts  --      1.3634                 1.1489                 1.0573
 IR Inten    --     51.8529                16.0505                 7.6883

                     67                     68                     69
                      A                      A                      A
 Frequencies --   1153.2972              1173.5061              1178.5306
 Red. masses --      1.3653                 1.4825                 1.8822
 Frc consts  --      1.0699                 1.2028                 1.5403
 IR Inten    --     29.4860                 2.0285                19.6260

                     70                     71                     72
                      A                      A                      A
 Frequencies --   1200.9228              1218.7968              1228.9143
 Red. masses --      1.7800                 2.4281                 1.9489
 Frc consts  --      1.5125                 2.1251                 1.7341
 IR Inten    --     19.1785                57.2258                11.5558

                     73                     74                     75
                      A                      A                      A
 Frequencies --   1253.4852              1277.1011              1290.7431
 Red. masses --      2.5252                 1.7125                 2.4188
 Frc consts  --      2.3376                 1.6457                 2.3743
 IR Inten    --     35.0426                12.2389                23.5182

                     76                     77                     78
                      A                      A                      A
 Frequencies --   1309.7386              1321.0543              1331.4821
 Red. masses --      4.1028                 2.3508                 5.5095
 Frc consts  --      4.1467                 2.4172                 5.7549
 IR Inten    --      6.1872               340.7638                88.7135

                     79                     80                     81
                      A                      A                      A
 Frequencies --   1333.9467              1370.1065              1392.8718
 Red. masses --      2.4283                 7.7685                 3.4959
 Frc consts  --      2.5459                 8.5920                 3.9961
 IR Inten    --    143.3496                74.0950               110.5795

                     82                     83                     84
                      A                      A                      A
 Frequencies --   1394.4900              1415.0035              1418.6491
 Red. masses --      1.3217                 1.3065                 2.0515
 Frc consts  --      1.5143                 1.5412                 2.4327
 IR Inten    --     15.0554                53.2324                91.0182

                     85                     86                     87
                      A                      A                      A
 Frequencies --   1441.0053              1456.1676              1483.2537
 Red. masses --      9.9930                 1.2049                 1.0666
 Frc consts  --     12.2259                 1.5053                 1.3825
 IR Inten    --    796.0477                 2.9120                 1.9992

                     88                     89                     90
                      A                      A                      A
 Frequencies --   1484.6847              1489.8944              1497.9298
 Red. masses --      1.0552                 1.0957                 2.6608
 Frc consts  --      1.3705                 1.4330                 3.5176
 IR Inten    --      8.9064                35.9358                10.0817

                     91                     92                     93
                      A                      A                      A
 Frequencies --   1500.1548              1502.4072              1508.9917
 Red. masses --      1.3565                 1.2213                 1.0810
 Frc consts  --      1.7986                 1.6243                 1.4503
 IR Inten    --      3.8317                26.4316                60.6927

                     94                     95                     96
                      A                      A                      A
 Frequencies --   1514.3112              1531.0525              1532.8080
 Red. masses --      1.5462                 3.1834                 3.2040
 Frc consts  --      2.0891                 4.3967                 4.4353
 IR Inten    --     60.1203               239.0717                16.7597

                     97                     98                     99
                      A                      A                      A
 Frequencies --   1622.1442              1653.3017              1670.8903
 Red. masses --     11.0494                 7.7089                 7.1973
 Frc consts  --     17.1304                12.4150                11.8391
 IR Inten    --    300.3755               196.5910                 2.6963

                    100                    101                    102
                      A                      A                      A
 Frequencies --   1680.5421              1688.6561              1737.6354
 Red. masses --      7.0977                 8.6728                 7.7312
 Frc consts  --     11.8104                14.5711                13.7535
 IR Inten    --     78.5963               179.6881                43.2585

                    103                    104                    105
                      A                      A                      A
 Frequencies --   3026.3847              3060.7038              3065.1754
 Red. masses --      1.0494                 1.0348                 1.0379
 Frc consts  --      5.6627                 5.7112                 5.7454
 IR Inten    --     56.4799                17.9641                30.6247

                    106                    107                    108
                      A                      A                      A
 Frequencies --   3121.7714              3130.1844              3138.8031
 Red. masses --      1.0856                 1.1016                 1.1032
 Frc consts  --      6.2336                 6.3591                 6.4039
 IR Inten    --     22.7343                16.1893                30.6620

                    109                    110                    111
                      A                      A                      A
 Frequencies --   3144.5802              3158.7170              3167.8301
 Red. masses --      1.1027                 1.1032                 1.1007
 Frc consts  --      6.4246                 6.4853                 6.5077
 IR Inten    --     23.5389                10.0622                14.1360

                    112                    113                    114
                      A                      A                      A
 Frequencies --   3197.3418              3205.2519              3207.6773
 Red. masses --      1.0882                 1.0890                 1.0905
 Frc consts  --      6.5547                 6.5916                 6.6108
 IR Inten    --      5.8648                 8.1509                 5.7513

                    115                    116                    117
                      A                      A                      A
 Frequencies --   3224.1111              3230.1815              3235.4437
 Red. masses --      1.0924                 1.0967                 1.0911
 Frc consts  --      6.6906                 6.7418                 6.7293
 IR Inten    --     15.7986                10.5346                 0.0989

                    118                    119                    120
                      A                      A                      A
 Frequencies --   3240.5284              3245.4685              3257.9997
 Red. masses --      1.0921                 1.0943                 1.0942
 Frc consts  --      6.7570                 6.7914                 6.8428
 IR Inten    --      4.5917                 0.7496                 6.8012

 - Thermochemistry -
 -------------------
 Temperature   298.150 Kelvin.  Pressure   1.00000 Atm.
 Atom     1 has atomic number  6 and mass  12.00000

 Molecular mass:   322.13174 amu.
 Principal axes and moments of inertia in atomic units:
                           1         2         3
     Eigenvalues --  2981.34029********************
           X            0.99999   0.00058   0.00378
           Y           -0.00069   0.99956   0.02967
           Z           -0.00376  -0.02967   0.99955
 This molecule is an asymmetric top.
 Rotational symmetry number  1.
 Warning -- assumption of classical behavior for rotation
           may cause significant error
 Rotational temperatures (Kelvin)      0.02905     0.00629     0.00594
 Rotational constants (GHZ):           0.60535     0.13098     0.12372
 Zero-point vibrational energy     890358.3 (Joules/Mol)
                                  212.80074 (Kcal/Mol)
 Warning -- explicit consideration of  34 degrees of freedom as
           vibrations may cause significant error
 Vibrational temperatures:     33.44    54.80    68.63   131.18   154.67
          (Kelvin)            172.68   192.33   229.79   267.93   313.11
                              316.80   338.91   353.08   393.00   397.21
                              436.49   469.52   473.78   492.98   501.57
                              546.57   601.62   608.11   631.78   659.13
                              708.15   740.80   775.23   793.76   805.14
                              811.92   842.40   844.25   866.90   922.08
                              935.82  1010.69  1066.42  1109.89  1121.45
                             1139.37  1141.00  1152.38  1153.52  1210.00
                             1232.93  1256.47  1268.53  1278.37  1363.74
                             1374.80  1383.74  1386.79  1392.52  1419.44
                             1440.33  1441.16  1474.87  1493.92  1498.06
                             1521.75  1566.66  1613.93  1626.59  1647.37
                             1655.32  1659.34  1688.41  1695.64  1727.86
                             1753.58  1768.13  1803.49  1837.46  1857.09
                             1884.42  1900.70  1915.71  1919.25  1971.28
                             2004.03  2006.36  2035.87  2041.12  2073.29
                             2095.10  2134.07  2136.13  2143.63  2155.19
                             2158.39  2161.63  2171.10  2178.76  2202.84
                             2205.37  2333.90  2378.73  2404.04  2417.93
                             2429.60  2500.07  4354.29  4403.67  4410.10
                             4491.53  4503.64  4516.04  4524.35  4544.69
                             4557.80  4600.26  4611.64  4615.13  4638.78
                             4647.51  4655.08  4662.40  4669.51  4687.53

 Zero-point correction=                           0.339120 (Hartree/Particle)
 Thermal correction to Energy=                    0.358748
 Thermal correction to Enthalpy=                  0.359692
 Thermal correction to Gibbs Free Energy=         0.291216
 Sum of electronic and zero-point Energies=          -1069.578240
 Sum of electronic and thermal Energies=             -1069.558611
 Sum of electronic and thermal Enthalpies=           -1069.557667
 Sum of electronic and thermal Free Energies=        -1069.626144

                     E (Thermal)             CV                S
                      KCal/Mol        Cal/Mol-Kelvin    Cal/Mol-Kelvin
 Total                  225.118             79.426            144.121
 Electronic               0.000              0.000              0.000
 Translational            0.889              2.981             43.205
 Rotational               0.889              2.981             34.748
 Vibrational            223.340             73.465             66.168
 Vibration     1          0.593              1.985              6.336
 Vibration     2          0.594              1.982              5.356
 Vibration     3          0.595              1.978              4.911
 Vibration     4          0.602              1.955              3.635
 Vibration     5          0.606              1.943              3.314
 Vibration     6          0.609              1.933              3.100
 Vibration     7          0.613              1.920              2.892
 Vibration     8          0.622              1.892              2.553
 Vibration     9          0.632              1.859              2.265
 Vibration    10          0.646              1.814              1.979
 Vibration    11          0.647              1.810              1.958
 Vibration    12          0.655              1.786              1.836
 Vibration    13          0.660              1.770              1.763
 Vibration    14          0.676              1.723              1.576
 Vibration    15          0.678              1.718              1.558
 Vibration    16          0.695              1.667              1.398
 Vibration    17          0.710              1.623              1.278
 Vibration    18          0.712              1.617              1.264
 Vibration    19          0.722              1.590              1.200
 Vibration    20          0.726              1.578              1.172
 Vibration    21          0.750              1.513              1.040
 Vibration    22          0.781              1.431              0.898
 Vibration    23          0.785              1.421              0.883
 Vibration    24          0.799              1.385              0.829
 Vibration    25          0.816              1.343              0.772
 Vibration    26          0.848              1.267              0.678
 Vibration    27          0.870              1.217              0.622
 Vibration    28          0.894              1.164              0.568
 Vibration    29          0.907              1.136              0.541
 Vibration    30          0.915              1.119              0.525
 Vibration    31          0.920              1.108              0.515
 Vibration    32          0.943              1.063              0.475
 Vibration    33          0.944              1.060              0.473
 Vibration    34          0.961              1.026              0.445

 Optimization completed.
    -- Stationary point found.
 Normal termination of Gaussian 16 at Sun Mar 10 11:59:04 2024.
