 Gaussian 16, Revision A.03,
 Gaussian 16:  ES64L-G16RevA.03 25-Dec-2016

 ----------------------------------------------------------------------
 #P PBE1PBE/def2TZVP opt freq=(noraman) scrf=(pcm,solvent=chloroform) E
 mpiricalDispersion=GD3BJ gfinput
 ----------------------------------------------------------------------

 -----
 TITLE
 -----
 Symbolic Z-matrix:
 Charge =  0 Multiplicity = 1

 SCF Done:  E(RPBE1PBE) =  -1069.15157202     A.U. after   13 cycles
 SCF Done:  E(RPBE1PBE) =  -1069.16509686     A.U. after   13 cycles
 SCF Done:  E(RPBE1PBE) =  -1069.16991475     A.U. after   12 cycles
 SCF Done:  E(RPBE1PBE) =  -1069.16382702     A.U. after   14 cycles
 SCF Done:  E(RPBE1PBE) =  -1069.17333549     A.U. after   12 cycles
 SCF Done:  E(RPBE1PBE) =  -1069.17413862     A.U. after   11 cycles
 SCF Done:  E(RPBE1PBE) =  -1069.17428969     A.U. after   10 cycles
 SCF Done:  E(RPBE1PBE) =  -1069.17431490     A.U. after   10 cycles
 SCF Done:  E(RPBE1PBE) =  -1069.17432069     A.U. after    9 cycles
 SCF Done:  E(RPBE1PBE) =  -1069.17432299     A.U. after    9 cycles
 SCF Done:  E(RPBE1PBE) =  -1069.17434580     A.U. after   10 cycles
 SCF Done:  E(RPBE1PBE) =  -1069.17435713     A.U. after   10 cycles
 SCF Done:  E(RPBE1PBE) =  -1069.17436329     A.U. after   10 cycles
 SCF Done:  E(RPBE1PBE) =  -1069.17436444     A.U. after   11 cycles
 SCF Done:  E(RPBE1PBE) =  -1069.17436878     A.U. after   10 cycles
 SCF Done:  E(RPBE1PBE) =  -1069.17436892     A.U. after    7 cycles
 SCF Done:  E(RPBE1PBE) =  -1069.17436884     A.U. after    9 cycles
 SCF Done:  E(RPBE1PBE) =  -1069.17436898     A.U. after    7 cycles
 SCF Done:  E(RPBE1PBE) =  -1069.17436897     A.U. after    8 cycles
 Optimization completed on the basis of negligible forces.
    -- Stationary point found.
 Normal termination of Gaussian 16 at Sun Mar 10 07:46:03 2024.

 ----------------------------------------------------------------------
 #P Geom=AllCheck Guess=TCheck SCRF=Check GenChk RPBE1PBE/def2TZVP Freq
 ----------------------------------------------------------------------

 Structure from the checkpoint file:  "sp1_gs_pbe0.chk"
 -----
 TITLE
 -----
 Charge =  0 Multiplicity = 1

                         Standard orientation:
 ---------------------------------------------------------------------
 Center     Atomic      Atomic             Coordinates (Angstroms)
 Number     Number       Type             X           Y           Z
 ---------------------------------------------------------------------
      1          6           0        4.602524   -2.121107   -0.346629
      2          6           0        3.500123   -1.739460   -1.109941
      3          6           0        2.771453   -0.639736   -0.688125
      4          6           0        3.119316    0.059599    0.467744
      5          6           0        4.207459   -0.327641    1.215795
      6          6           0        4.956664   -1.431754    0.803036
      7          1           0        3.224426   -2.296044   -1.997278
      8          1           0        5.812433   -1.752626    1.384780
      9          1           0        5.185292   -2.981210   -0.656625
     10          1           0        4.479884    0.211646    2.116928
     11          7           0        1.652572   -0.062738   -1.277259
     12          6           0        0.998586    0.764456   -0.297805
     13          6           0        2.176250    1.227273    0.624989
     14          6           0        0.872761   -0.786358   -2.246980
     15          1           0        0.069626   -0.146427   -2.612103
     16          1           0        0.435965   -1.703405   -1.831550
     17          6           0        2.856251    2.473777    0.051065
     18          1           0        3.124091    2.337106   -0.998548
     19          1           0        3.773368    2.664285    0.610596
     20          1           0        2.215689    3.354018    0.142794
     21          6           0        1.732282    1.500464    2.051454
     22          1           0        1.338892    0.606464    2.532069
     23          1           0        0.962068    2.275715    2.072584
     24          1           0        2.582053    1.861148    2.634796
     25          8           0        0.161014   -0.093240    0.534976
     26          6           0       -1.159972   -0.167085    0.390642
     27          6           0        0.206432    1.855875   -0.930584
     28          6           0       -1.125163    1.861119   -0.955784
     29          6           0       -1.878903    0.797686   -0.333039
     30          1           0        0.774311    2.631226   -1.425873
     31          1           0       -1.666986    2.656102   -1.456224
     32          6           0       -3.257375    0.687994   -0.412261
     33          6           0       -1.818675   -1.219106    1.025692
     34          6           0       -3.189886   -1.319492    0.941322
     35          6           0       -3.897127   -0.364493    0.219797
     36          1           0       -3.836145    1.418703   -0.961722
     37          1           0       -1.236594   -1.944804    1.579247
     38          1           0       -3.721733   -2.127042    1.424553
     39          7           0       -5.338243   -0.470597    0.128591
     40          8           0       -5.936118    0.373844   -0.512688
     41          8           0       -5.881662   -1.399093    0.697518
     42          1           0        1.499172   -1.055665   -3.098535
 ---------------------------------------------------------------------

 SCF Done:  E(RPBE1PBE) =  -1069.17436896     A.U. after    1 cycles

 The electronic state is 1-A.
 Alpha  occ. eigenvalues --  -19.26037 -19.23939 -19.23928 -14.62514 -14.41302
 Alpha  occ. eigenvalues --  -10.33941 -10.31627 -10.28470 -10.26223 -10.25823
 Alpha  occ. eigenvalues --  -10.25701 -10.25666 -10.25665 -10.25166 -10.25042
 Alpha  occ. eigenvalues --  -10.24509 -10.24484 -10.22873 -10.22800 -10.22699
 Alpha  occ. eigenvalues --  -10.22512 -10.21989 -10.21872 -10.21425  -1.27435
 Alpha  occ. eigenvalues --   -1.13266  -1.09306  -1.00700  -0.92476  -0.88453
 Alpha  occ. eigenvalues --   -0.86794  -0.85738  -0.82866  -0.79567  -0.77283
 Alpha  occ. eigenvalues --   -0.76623  -0.75543  -0.72361  -0.70918  -0.68130
 Alpha  occ. eigenvalues --   -0.67125  -0.65337  -0.63817  -0.61406  -0.59182
 Alpha  occ. eigenvalues --   -0.58622  -0.58157  -0.56456  -0.55842  -0.54469
 Alpha  occ. eigenvalues --   -0.53054  -0.52331  -0.51526  -0.49596  -0.48524
 Alpha  occ. eigenvalues --   -0.47570  -0.47008  -0.46376  -0.45615  -0.45336
 Alpha  occ. eigenvalues --   -0.45059  -0.44629  -0.43999  -0.43220  -0.42277
 Alpha  occ. eigenvalues --   -0.41448  -0.40818  -0.40024  -0.39116  -0.38759
 Alpha  occ. eigenvalues --   -0.38404  -0.37389  -0.36352  -0.35767  -0.34853
 Alpha  occ. eigenvalues --   -0.34247  -0.33626  -0.33547  -0.33305  -0.31827
 Alpha  occ. eigenvalues --   -0.31569  -0.28006  -0.26704  -0.24894  -0.22046
 Alpha virt. eigenvalues --   -0.08728  -0.05422  -0.01002  -0.00465   0.00497
 Alpha virt. eigenvalues --    0.03922   0.04250   0.06053   0.06368   0.06837
 Alpha virt. eigenvalues --    0.07012   0.08154   0.08893   0.09497   0.10094

 Mulliken charges:
               1
     1  C   -0.111576
     2  C   -0.308813
     3  C    0.139980
     4  C   -0.092510
     5  C   -0.233393
     6  C   -0.157955
     7  H    0.130304
     8  H    0.126986
     9  H    0.129532
    10  H    0.125824
    11  N   -0.043680
    12  C    0.412562
    13  C    0.251018
    14  C   -0.366517
    15  H    0.160645
    16  H    0.140523
    17  C   -0.466109
    18  H    0.152674
    19  H    0.141703
    20  H    0.144133
    21  C   -0.416822
    22  H    0.145092
    23  H    0.136207
    24  H    0.137185
    25  O   -0.235742
    26  C    0.231156
    27  C   -0.314733
    28  C   -0.236666
    29  C    0.252782
    30  H    0.157651
    31  H    0.141851
    32  C   -0.317804
    33  C   -0.295499
    34  C   -0.132447
    35  C    0.088369
    36  H    0.162663
    37  H    0.135175
    38  H    0.163038
    39  N    0.469159
    40  O   -0.349734
    41  O   -0.349973
    42  H    0.153763
 Sum of Mulliken charges =  -0.00000

 Dipole moment (field-independent basis, Debye):
    X=              6.0733    Y=              1.8971    Z=             -1.0211  Tot=              6.4441
 Quadrupole moment (field-independent basis, Debye-Ang):
   XX=           -187.8143   YY=           -130.9613   ZZ=           -132.8320
   XY=             -3.9293   XZ=              2.6373   YZ=              0.6397

  Exact polarizability: 450.671  -7.816 279.052  16.929 -16.144 238.757
 Approx polarizability: 489.826  -7.403 358.159  25.460 -33.269 312.048

                      1                      2                      3
                      A                      A                      A
 Frequencies --     14.6365                39.4350                46.4082
 Red. masses --      5.9081                 6.9186                 7.3160
 Frc consts  --      0.0007                 0.0063                 0.0093
 IR Inten    --      0.7355                 0.2146                 0.2092

                      4                      5                      6
                      A                      A                      A
 Frequencies --     88.9909               103.6168               115.0560
 Red. masses --      4.5692                 5.3308                 3.6329
 Frc consts  --      0.0213                 0.0337                 0.0283
 IR Inten    --      1.6015                 0.5990                 2.3939

                      7                      8                      9
                      A                      A                      A
 Frequencies --    125.7948               157.4052               175.0300
 Red. masses --      3.1772                 5.9704                 1.6634
 Frc consts  --      0.0296                 0.0872                 0.0300
 IR Inten    --      2.1394                 4.3815                 0.3965

                     10                     11                     12
                      A                      A                      A
 Frequencies --    193.6759               214.3872               228.8785
 Red. masses --      1.9010                 2.4367                 1.6744
 Frc consts  --      0.0420                 0.0660                 0.0517
 IR Inten    --      0.3123                 5.4137                 0.8972

                     13                     14                     15
                      A                      A                      A
 Frequencies --    233.4141               263.6288               268.4491
 Red. masses --      2.8887                 2.4068                 3.7253
 Frc consts  --      0.0927                 0.0986                 0.1582
 IR Inten    --      0.4834                 1.2559                 1.9179

                     16                     17                     18
                      A                      A                      A
 Frequencies --    290.3967               317.8252               323.3078
 Red. masses --      2.4218                 1.8977                 3.5146
 Frc consts  --      0.1203                 0.1129                 0.2164
 IR Inten    --      1.0519                 0.7344                 0.3386

                     19                     20                     21
                      A                      A                      A
 Frequencies --    330.9764               338.4092               373.2919
 Red. masses --      1.9081                 3.1041                 3.7626
 Frc consts  --      0.1232                 0.2094                 0.3089
 IR Inten    --      1.5431                 1.3164                 1.0151

                     22                     23                     24
                      A                      A                      A
 Frequencies --    414.4712               420.2621               432.8421
 Red. masses --      5.6312                 3.1834                 5.3893
 Frc consts  --      0.5700                 0.3313                 0.5949
 IR Inten    --      0.5230                 3.5123                12.5173

                     25                     26                     27
                      A                      A                      A
 Frequencies --    456.7346               488.8009               511.6258
 Red. masses --      3.6186                 3.4048                 4.6171
 Frc consts  --      0.4448                 0.4793                 0.7121
 IR Inten    --      4.0400                 5.1906                20.9353

                     28                     29                     30
                      A                      A                      A
 Frequencies --    535.7014               551.3346               559.4492
 Red. masses --      6.1917                 5.6281                 4.3328
 Frc consts  --      1.0469                 1.0080                 0.7990
 IR Inten    --      6.3875                 2.1734                 7.2490

                     31                     32                     33
                      A                      A                      A
 Frequencies --    562.9255               580.1570               583.8574
 Red. masses --      3.5703                 4.6921                 5.7318
 Frc consts  --      0.6666                 0.9305                 1.1512
 IR Inten    --      1.3085                 1.9104                 8.6086

                     34                     35                     36
                      A                      A                      A
 Frequencies --    592.5879               639.3268               649.1609
 Red. masses --      4.2918                 4.1329                 4.2414
 Frc consts  --      0.8880                 0.9953                 1.0531
 IR Inten    --      2.2756                 2.7778                 1.3893

                     37                     38                     39
                      A                      A                      A
 Frequencies --    701.1380               738.3326               758.2370
 Red. masses --      6.6367                 2.4881                 1.2638
 Frc consts  --      1.9222                 0.7991                 0.4281
 IR Inten    --     31.6939                 8.7278                88.5593

                     40                     41                     42
                      A                      A                      A
 Frequencies --    774.8034               781.2950               788.4857
 Red. masses --      4.3245                 3.8902                 3.4082
 Frc consts  --      1.5296                 1.3991                 1.2484
 IR Inten    --      7.0054                 7.0521                45.6960

                     43                     44                     45
                      A                      A                      A
 Frequencies --    796.4913               797.6165               839.1500
 Red. masses --      4.1296                 2.5112                 3.1182
 Frc consts  --      1.5435                 0.9413                 1.2937
 IR Inten    --      8.3680                13.6642                24.9171

                     46                     47                     48
                      A                      A                      A
 Frequencies --    845.5500               864.0207               868.3645
 Red. masses --      5.6521                 2.0467                 1.5775
 Frc consts  --      2.3809                 0.9002                 0.7008
 IR Inten    --    173.1339                28.9086                 4.8582

                     49                     50                     51
                      A                      A                      A
 Frequencies --    875.6651               940.3455               944.0932
 Red. masses --      3.9416                 1.5096                 1.5362
 Frc consts  --      1.7807                 0.7865                 0.8067
 IR Inten    --      6.6568                 4.6283                22.3632

                     52                     53                     54
                      A                      A                      A
 Frequencies --    948.3008               956.0082               962.1473
 Red. masses --      2.0739                 2.9933                 1.6646
 Frc consts  --      1.0988                 1.6118                 0.9079
 IR Inten    --     20.9713               147.7724                24.9353

                     55                     56                     57
                      A                      A                      A
 Frequencies --    968.9564               979.0845               983.5333
 Red. masses --      1.2529                 3.5242                 1.3525
 Frc consts  --      0.6931                 1.9905                 0.7709
 IR Inten    --      1.0348               386.4827                 3.4267

                     58                     59                     60
                      A                      A                      A
 Frequencies --   1007.7456              1027.1922              1037.3477
 Red. masses --      1.3302                 1.7653                 2.3112
 Frc consts  --      0.7959                 1.0974                 1.4653
 IR Inten    --     12.4569                84.0449                30.8909

                     61                     62                     63
                      A                      A                      A
 Frequencies --   1055.3295              1090.7315              1115.1216
 Red. masses --      2.0962                 2.9793                 1.7030
 Frc consts  --      1.3755                 2.0883                 1.2477
 IR Inten    --     41.7899                 7.9922               334.6540

                     64                     65                     66
                      A                      A                      A
 Frequencies --   1126.9376              1142.1742              1144.0234
 Red. masses --      1.8016                 1.4896                 1.3514
 Frc consts  --      1.3481                 1.1449                 1.0421
 IR Inten    --     33.7387                17.6207                10.3871

                     67                     68                     69
                      A                      A                      A
 Frequencies --   1149.4497              1170.8740              1183.8941
 Red. masses --      1.3677                 1.2879                 2.0258
 Frc consts  --      1.0647                 1.0403                 1.6729
 IR Inten    --     20.2535                 1.2656                14.0040

                     70                     71                     72
                      A                      A                      A
 Frequencies --   1195.2762              1213.2046              1221.3018
 Red. masses --      1.8521                 2.3775                 1.9897
 Frc consts  --      1.5590                 2.0618                 1.7486
 IR Inten    --     28.7243                53.7246                18.2210

                     73                     74                     75
                      A                      A                      A
 Frequencies --   1256.7369              1271.8485              1290.6960
 Red. masses --      2.4850                 1.5558                 2.8811
 Frc consts  --      2.3124                 1.4827                 2.8278
 IR Inten    --     46.0500                15.7124                20.9683

                     76                     77                     78
                      A                      A                      A
 Frequencies --   1309.5626              1322.4158              1338.9050
 Red. masses --      4.0911                 1.8977                 3.1390
 Frc consts  --      4.1337                 1.9553                 3.3154
 IR Inten    --      8.4993               299.5135               318.2038

                     79                     80                     81
                      A                      A                      A
 Frequencies --   1357.5368              1386.3767              1405.3004
 Red. masses --      5.8419                 1.2724                 3.6192
 Frc consts  --      6.3431                 1.4409                 4.2111
 IR Inten    --    111.8045                22.0503               944.6700

                     82                     83                     84
                      A                      A                      A
 Frequencies --   1406.8911              1408.5970              1415.6069
 Red. masses --      2.4104                 2.0400                 3.9431
 Frc consts  --      2.8109                 2.3848                 4.6556
 IR Inten    --    171.7615                48.2108                20.1727

                     85                     86                     87
                      A                      A                      A
 Frequencies --   1423.6454              1448.7967              1472.8788
 Red. masses --      3.9117                 1.2317                 1.0549
 Frc consts  --      4.6712                 1.5233                 1.3483
 IR Inten    --      9.2380                 8.4419                 4.7962

                     88                     89                     90
                      A                      A                      A
 Frequencies --   1475.3716              1479.1561              1488.9423
 Red. masses --      1.0535                 1.0618                 1.1189
 Frc consts  --      1.3511                 1.3687                 1.4615
 IR Inten    --      5.4955                34.9662                 3.9541

                     91                     92                     93
                      A                      A                      A
 Frequencies --   1491.9575              1495.8249              1499.2492
 Red. masses --      1.2485                 2.4911                 1.2002
 Frc consts  --      1.6374                 3.2840                 1.5894
 IR Inten    --      7.1706                38.4891                48.7317

                     94                     95                     96
                      A                      A                      A
 Frequencies --   1509.5482              1528.9590              1533.4398
 Red. masses --      1.8981                 3.5820                 3.3922
 Frc consts  --      2.5484                 4.9337                 4.6997
 IR Inten    --     57.3423               214.1784               106.7646

                     97                     98                     99
                      A                      A                      A
 Frequencies --   1609.5965              1644.0865              1663.4796
 Red. masses --     11.5569                 8.0771                 7.2910
 Frc consts  --     17.6410                12.8633                11.8870
 IR Inten    --    260.7863               196.0233                 3.2629

                    100                    101                    102
                      A                      A                      A
 Frequencies --   1673.8665              1676.6835              1725.3327
 Red. masses --      7.2880                 8.1212                 7.7695
 Frc consts  --     12.0309                13.4516                13.6267
 IR Inten    --    125.8879               132.1232                47.4968

                    103                    104                    105
                      A                      A                      A
 Frequencies --   3016.2724              3051.1334              3057.4131
 Red. masses --      1.0487                 1.0351                 1.0378
 Frc consts  --      5.6211                 5.6775                 5.7155
 IR Inten    --     68.3808                22.9599                33.2867

                    106                    107                    108
                      A                      A                      A
 Frequencies --   3107.6050              3124.9358              3130.9356
 Red. masses --      1.0873                 1.1014                 1.1020
 Frc consts  --      6.1868                 6.3366                 6.3649
 IR Inten    --     29.1697                16.1599                43.1610

                    109                    110                    111
                      A                      A                      A
 Frequencies --   3138.8987              3150.4345              3159.8369
 Red. masses --      1.1024                 1.1019                 1.1006
 Frc consts  --      6.3994                 6.4438                 6.4745
 IR Inten    --     24.9450                 8.8816                17.7924

                    112                    113                    114
                      A                      A                      A
 Frequencies --   3186.0393              3193.5830              3196.5229
 Red. masses --      1.0866                 1.0891                 1.0902
 Frc consts  --      6.4985                 6.5444                 6.5629
 IR Inten    --      4.2247                11.1490                 7.1718

                    115                    116                    117
                      A                      A                      A
 Frequencies --   3209.7953              3217.2768              3222.4934
 Red. masses --      1.0928                 1.0968                 1.0907
 Frc consts  --      6.6333                 6.6888                 6.6732
 IR Inten    --     24.1039                14.2306                 0.7041

                    118                    119                    120
                      A                      A                      A
 Frequencies --   3232.3955              3237.0438              3247.3359
 Red. masses --      1.0917                 1.0938                 1.0938
 Frc consts  --      6.7202                 6.7529                 6.7960
 IR Inten    --      3.2447                 0.5237                 4.6945

 - Thermochemistry -
 -------------------
 Temperature   298.150 Kelvin.  Pressure   1.00000 Atm.
 Atom     1 has atomic number  6 and mass  12.00000

 Molecular mass:   322.13174 amu.
 Principal axes and moments of inertia in atomic units:
                           1         2         3
     Eigenvalues --  2940.12046********************
           X            0.99999   0.00023   0.00348
           Y           -0.00036   0.99930   0.03732
           Z           -0.00347  -0.03732   0.99930
 This molecule is an asymmetric top.
 Rotational symmetry number  1.
 Warning -- assumption of classical behavior for rotation
           may cause significant error
 Rotational temperatures (Kelvin)      0.02946     0.00620     0.00591
 Rotational constants (GHZ):           0.61383     0.12923     0.12323
 Zero-point vibrational energy     885868.9 (Joules/Mol)
                                  211.72775 (Kcal/Mol)
 Warning -- explicit consideration of  34 degrees of freedom as
           vibrations may cause significant error
 Vibrational temperatures:     21.06    56.74    66.77   128.04   149.08
          (Kelvin)            165.54   180.99   226.47   251.83   278.66
                              308.46   329.31   335.83   379.30   386.24
                              417.82   457.28   465.17   476.20   486.90
                              537.08   596.33   604.66   622.76   657.14
                              703.28   736.12   770.75   793.25   804.92
                              809.92   834.72   840.04   852.60   919.85
                              934.00  1008.78  1062.30  1090.93  1114.77
                             1124.11  1134.46  1145.97  1147.59  1207.35
                             1216.56  1243.13  1249.38  1259.89  1352.95
                             1358.34  1364.39  1375.48  1384.32  1394.11
                             1408.68  1415.09  1449.92  1477.90  1492.51
                             1518.38  1569.32  1604.41  1621.41  1643.33
                             1645.99  1653.80  1684.63  1703.36  1719.74
                             1745.53  1757.18  1808.16  1829.91  1857.02
                             1884.17  1902.66  1926.39  1953.19  1994.69
                             2021.91  2024.20  2026.66  2036.74  2048.31
                             2084.50  2119.14  2122.73  2128.18  2142.26
                             2146.59  2152.16  2157.09  2171.90  2199.83
                             2206.28  2315.85  2365.47  2393.38  2408.32
                             2412.37  2482.37  4339.74  4389.90  4398.94
                             4471.15  4496.09  4504.72  4516.18  4532.77
                             4546.30  4584.00  4594.85  4599.08  4618.18
                             4628.94  4636.45  4650.70  4657.38  4672.19

 Zero-point correction=                           0.337410 (Hartree/Particle)
 Thermal correction to Energy=                    0.357357
 Thermal correction to Enthalpy=                  0.358301
 Thermal correction to Gibbs Free Energy=         0.288684
 Sum of electronic and zero-point Energies=          -1068.836959
 Sum of electronic and thermal Energies=             -1068.817012
 Sum of electronic and thermal Enthalpies=           -1068.816068
 Sum of electronic and thermal Free Energies=        -1068.885684

                     E (Thermal)             CV                S
                      KCal/Mol        Cal/Mol-Kelvin    Cal/Mol-Kelvin
 Total                  224.245             80.119            146.520
 Electronic               0.000              0.000              0.000
 Translational            0.889              2.981             43.205
 Rotational               0.889              2.981             34.752
 Vibrational            222.467             74.157             68.564
 Vibration     1          0.593              1.986              7.254
 Vibration     2          0.594              1.981              5.287
 Vibration     3          0.595              1.979              4.965
 Vibration     4          0.602              1.957              3.682
 Vibration     5          0.605              1.946              3.385
 Vibration     6          0.608              1.937              3.182
 Vibration     7          0.611              1.927              3.009
 Vibration     8          0.621              1.894              2.581
 Vibration     9          0.627              1.873              2.381
 Vibration    10          0.635              1.849              2.192
 Vibration    11          0.644              1.819              2.006
 Vibration    12          0.652              1.797              1.888
 Vibration    13          0.654              1.790              1.853
 Vibration    14          0.670              1.740              1.638
 Vibration    15          0.673              1.731              1.606
 Vibration    16          0.686              1.692              1.472
 Vibration    17          0.704              1.640              1.321
 Vibration    18          0.708              1.629              1.293
 Vibration    19          0.713              1.614              1.255
 Vibration    20          0.719              1.599              1.220
 Vibration    21          0.745              1.527              1.066
 Vibration    22          0.778              1.439              0.911
 Vibration    23          0.783              1.426              0.891
 Vibration    24          0.794              1.399              0.849
 Vibration    25          0.815              1.346              0.776
 Vibration    26          0.845              1.275              0.687
 Vibration    27          0.867              1.224              0.630
 Vibration    28          0.891              1.171              0.575
 Vibration    29          0.907              1.137              0.541
 Vibration    30          0.915              1.119              0.525
 Vibration    31          0.919              1.111              0.518
 Vibration    32          0.937              1.074              0.485
 Vibration    33          0.941              1.066              0.478
 Vibration    34          0.950              1.048              0.463

 Optimization completed.
    -- Stationary point found.
 Normal termination of Gaussian 16 at Sun Mar 10 09:52:40 2024.
