 Gaussian 16, Revision A.03,
 Gaussian 16:  ES64L-G16RevA.03 25-Dec-2016

 ----------------------------------------------------------------------
 #p PBE1PBE/def2TZVP EmpiricalDispersion=GD3BJ SCRF(PCM,Solvent=chlorof
 orm) TD(Singlets,NStates=5, root=1) opt guess=(read) geom=(allcheck) g
 finput
 ----------------------------------------------------------------------

 Structure from the checkpoint file:  "sp1_s1_pbe0.chk"
 -----
 TITLE
 -----
 Charge =  0 Multiplicity = 1

 SCF Done:  E(RPBE1PBE) =  -1069.17436896     A.U. after    2 cycles
 Total Energy, E(TD-HF/TD-DFT) =  -1069.06109462
 SCF Done:  E(RPBE1PBE) =  -1069.16574770     A.U. after   12 cycles
 Total Energy, E(TD-HF/TD-DFT) =  -1069.07784969
 SCF Done:  E(RPBE1PBE) =  -1069.15613369     A.U. after   12 cycles
 Total Energy, E(TD-HF/TD-DFT) =  -1069.08224839
 SCF Done:  E(RPBE1PBE) =  -1069.15435269     A.U. after   11 cycles
 Total Energy, E(TD-HF/TD-DFT) =  -1069.08290661
 SCF Done:  E(RPBE1PBE) =  -1069.15246234     A.U. after   11 cycles
 Total Energy, E(TD-HF/TD-DFT) =  -1069.08295272
 SCF Done:  E(RPBE1PBE) =  -1069.15337288     A.U. after   11 cycles
 Total Energy, E(TD-HF/TD-DFT) =  -1069.08339539
 SCF Done:  E(RPBE1PBE) =  -1069.15343366     A.U. after   11 cycles
 Total Energy, E(TD-HF/TD-DFT) =  -1069.08370149
 SCF Done:  E(RPBE1PBE) =  -1069.15309267     A.U. after   12 cycles
 Total Energy, E(TD-HF/TD-DFT) =  -1069.08391881
 SCF Done:  E(RPBE1PBE) =  -1069.15354960     A.U. after   11 cycles
 Total Energy, E(TD-HF/TD-DFT) =  -1069.08401584
 SCF Done:  E(RPBE1PBE) =  -1069.15330933     A.U. after   10 cycles
 Total Energy, E(TD-HF/TD-DFT) =  -1069.08403450
 Total Energy, E(TD-HF/TD-DFT) =  -1069.08403909
 Total Energy, E(TD-HF/TD-DFT) =  -1069.08403953
 Total Energy, E(TD-HF/TD-DFT) =  -1069.08404048
 Total Energy, E(TD-HF/TD-DFT) =  -1069.08403990
 SCF Done:  E(RPBE1PBE) =  -1069.15316857     A.U. after    7 cycles
 Total Energy, E(TD-HF/TD-DFT) =  -1069.08404057
 SCF Done:  E(RPBE1PBE) =  -1069.15313564     A.U. after    8 cycles
 Total Energy, E(TD-HF/TD-DFT) =  -1069.08404033
 SCF Done:  E(RPBE1PBE) =  -1069.15316394     A.U. after    5 cycles
 Total Energy, E(TD-HF/TD-DFT) =  -1069.08404067
 SCF Done:  E(RPBE1PBE) =  -1069.15313286     A.U. after    8 cycles
 Total Energy, E(TD-HF/TD-DFT) =  -1069.08404031
 SCF Done:  E(RPBE1PBE) =  -1069.15315975     A.U. after    5 cycles
 Total Energy, E(TD-HF/TD-DFT) =  -1069.08404058
 SCF Done:  E(RPBE1PBE) =  -1069.15312695     A.U. after    8 cycles
 Total Energy, E(TD-HF/TD-DFT) =  -1069.08404033
 SCF Done:  E(RPBE1PBE) =  -1069.15315601     A.U. after    6 cycles
 Total Energy, E(TD-HF/TD-DFT) =  -1069.08404056
 SCF Done:  E(RPBE1PBE) =  -1069.15312605     A.U. after    7 cycles
 Total Energy, E(TD-HF/TD-DFT) =  -1069.08404022
 SCF Done:  E(RPBE1PBE) =  -1069.15314713     A.U. after    7 cycles
 Total Energy, E(TD-HF/TD-DFT) =  -1069.08404019
 SCF Done:  E(RPBE1PBE) =  -1069.15312669     A.U. after    7 cycles

 Excitation energies and oscillator strengths:

 Excited State   1:      Singlet-A      1.8799 eV  659.51 nm  f=0.0148  <S**2>=0.000
      85 -> 86        -0.70577
 This state for optimization and/or second-order correction.
 Total Energy, E(TD-HF/TD-DFT) =  -1069.08404024
 Copying the excited state density for this state as the 1-particle RhoCI density.

 Excited State   2:      Singlet-A      3.0001 eV  413.27 nm  f=0.0758  <S**2>=0.000
      85 -> 87        -0.70434

 Excited State   3:      Singlet-A      3.3696 eV  367.95 nm  f=0.1684  <S**2>=0.000
      81 -> 86        -0.19323
      82 -> 86         0.11214
      83 -> 86         0.24754
      84 -> 86        -0.61582

 Excited State   4:      Singlet-A      3.3907 eV  365.66 nm  f=0.0109  <S**2>=0.000
      81 -> 86         0.66042
      84 -> 86        -0.16923

 Excited State   5:      Singlet-A      3.7017 eV  334.94 nm  f=0.0093  <S**2>=0.000
      82 -> 86         0.11461
      83 -> 86         0.63434
      84 -> 86         0.28569

 Optimization completed on the basis of negligible forces.
    -- Stationary point found.

                         Standard orientation:
 ---------------------------------------------------------------------
 Center     Atomic      Atomic             Coordinates (Angstroms)
 Number     Number       Type             X           Y           Z
 ---------------------------------------------------------------------
      1          6           0        4.110635   -2.520398   -0.423334
      2          6           0        2.976949   -2.080780   -1.055102
      3          6           0        2.451794   -0.837635   -0.645077
      4          6           0        3.087115   -0.047100    0.353258
      5          6           0        4.216444   -0.513355    0.970574
      6          6           0        4.724192   -1.754382    0.583937
      7          1           0        2.485140   -2.674883   -1.812625
      8          1           0        5.615390   -2.137327    1.063984
      9          1           0        4.538177   -3.477534   -0.691732
     10          1           0        4.715313    0.066281    1.736648
     11          7           0        1.345117   -0.236148   -1.071632
     12          6           0        0.984806    0.910850   -0.141741
     13          6           0        2.377585    1.269666    0.462530
     14          6           0        0.482259   -0.735301   -2.106862
     15          1           0       -0.126752    0.084037   -2.480117
     16          1           0       -0.176823   -1.513551   -1.713026
     17          6           0        3.130674    2.271214   -0.423199
     18          1           0        3.138134    1.968209   -1.472382
     19          1           0        4.165248    2.340959   -0.085199
     20          1           0        2.682728    3.262376   -0.344137
     21          6           0        2.275840    1.807942    1.879200
     22          1           0        1.849304    1.075122    2.560712
     23          1           0        1.649669    2.701660    1.894598
     24          1           0        3.268403    2.088957    2.236532
     25          8           0        0.236740    0.360489    0.896787
     26          6           0       -1.102361    0.116961    0.649922
     27          6           0        0.256927    1.997883   -0.860860
     28          6           0       -1.077175    1.994708   -0.879797
     29          6           0       -1.818598    0.946990   -0.211922
     30          1           0        0.830962    2.749868   -1.382391
     31          1           0       -1.623927    2.767677   -1.409171
     32          6           0       -3.174812    0.728973   -0.406391
     33          6           0       -1.733109   -0.902447    1.341109
     34          6           0       -3.082480   -1.126413    1.145087
     35          6           0       -3.817792   -0.318100    0.261135
     36          1           0       -3.747107    1.353933   -1.078120
     37          1           0       -1.161394   -1.520075    2.023617
     38          1           0       -3.597166   -1.925796    1.658296
     39          7           0       -5.172736   -0.558457    0.048453
     40          8           0       -5.806748    0.185192   -0.763645
     41          8           0       -5.730580   -1.515561    0.669761
     42          1           0        1.079378   -1.144294   -2.921264
 ---------------------------------------------------------------------

 The electronic state is 1-A.
 Alpha  occ. eigenvalues --  -19.26717 -19.24500 -19.24486 -14.62752 -14.40889
 Alpha  occ. eigenvalues --  -10.34252 -10.32344 -10.29723 -10.26867 -10.26702
 Alpha  occ. eigenvalues --  -10.26640 -10.26119 -10.25564 -10.25521 -10.25449
 Alpha  occ. eigenvalues --  -10.25201 -10.24890 -10.22300 -10.22224 -10.22186
 Alpha  occ. eigenvalues --  -10.21887 -10.21808 -10.21399 -10.21194  -1.23827
 Alpha  occ. eigenvalues --   -1.13975  -1.06358  -0.99994  -0.93466  -0.87866
 Alpha  occ. eigenvalues --   -0.87116  -0.86610  -0.83768  -0.79868  -0.77047
 Alpha  occ. eigenvalues --   -0.76584  -0.76115  -0.72285  -0.71123  -0.68395
 Alpha  occ. eigenvalues --   -0.67648  -0.65651  -0.63933  -0.61012  -0.58896
 Alpha  occ. eigenvalues --   -0.58484  -0.58261  -0.56133  -0.54924  -0.54782
 Alpha  occ. eigenvalues --   -0.52882  -0.52313  -0.51486  -0.49510  -0.48930
 Alpha  occ. eigenvalues --   -0.48126  -0.47133  -0.46630  -0.45779  -0.45309
 Alpha  occ. eigenvalues --   -0.45063  -0.44801  -0.43918  -0.43288  -0.42248
 Alpha  occ. eigenvalues --   -0.41691  -0.41106  -0.40080  -0.39231  -0.38688
 Alpha  occ. eigenvalues --   -0.38344  -0.37069  -0.36415  -0.35296  -0.34862
 Alpha  occ. eigenvalues --   -0.34230  -0.33982  -0.33270  -0.33056  -0.31694
 Alpha  occ. eigenvalues --   -0.31431  -0.28763  -0.26670  -0.26156  -0.20138
 Alpha virt. eigenvalues --   -0.11203  -0.06228  -0.01391  -0.00402   0.01211
 Alpha virt. eigenvalues --    0.02932   0.04159   0.05831   0.06306   0.06677
 Alpha virt. eigenvalues --    0.07131   0.08173   0.08891   0.09812   0.09970

 Mulliken charges:
               1
     1  C   -0.116307
     2  C   -0.327861
     3  C    0.108346
     4  C   -0.087922
     5  C   -0.236173
     6  C   -0.176874
     7  H    0.132468
     8  H    0.121066
     9  H    0.126618
    10  H    0.121759
    11  N   -0.006171
    12  C    0.397501
    13  C    0.270483
    14  C   -0.351453
    15  H    0.161871
    16  H    0.138187
    17  C   -0.452592
    18  H    0.152369
    19  H    0.145216
    20  H    0.137220
    21  C   -0.425586
    22  H    0.145204
    23  H    0.134674
    24  H    0.136712
    25  O   -0.247141
    26  C    0.205997
    27  C   -0.310347
    28  C   -0.219268
    29  C    0.239131
    30  H    0.153218
    31  H    0.145128
    32  C   -0.295032
    33  C   -0.245849
    34  C   -0.134322
    35  C    0.091148
    36  H    0.166723
    37  H    0.146987
    38  H    0.167727
    39  N    0.449864
    40  O   -0.357147
    41  O   -0.356843
    42  H    0.151273
 Sum of Mulliken charges =  -0.00000

 Dipole moment (field-independent basis, Debye):
    X=              4.9382    Y=              2.9920    Z=             -0.9180  Tot=              5.8464
 Quadrupole moment (field-independent basis, Debye-Ang):
   XX=           -190.9875   YY=           -131.6184   ZZ=           -134.2348
   XY=             -2.4226   XZ=              0.0939   YZ=             -1.2595

 Normal termination of Gaussian 16 at Thu May  9 03:05:36 2024.
