 Gaussian 16, Revision A.03,
 Gaussian 16:  ES64L-G16RevA.03 25-Dec-2016

 ----------------------------------------------------------------------
 #p M062X/def2TZVP SCRF(PCM,Solvent=chloroform) TD(Singlets,NStates=5,
 root=1) integral=ultrafine opt guess=(read) geom=(allcheck) gfinput
 ----------------------------------------------------------------------

 Structure from the checkpoint file:  "sp1_s1_m062x.chk"
 -----
 TITLE
 -----
 Charge =  0 Multiplicity = 1

 SCF Done:  E(RM062X) =  -1069.91735934     A.U. after    1 cycles
 Total Energy, E(TD-HF/TD-DFT) =  -1069.76580329
 SCF Done:  E(RM062X) =  -1069.90123808     A.U. after   14 cycles
 Total Energy, E(TD-HF/TD-DFT) =  -1069.79141667
 SCF Done:  E(RM062X) =  -1069.88191740     A.U. after   14 cycles
 Total Energy, E(TD-HF/TD-DFT) =  -1069.79469743
 SCF Done:  E(RM062X) =  -1069.88432751     A.U. after   12 cycles
 Total Energy, E(TD-HF/TD-DFT) =  -1069.79485064
 SCF Done:  E(RM062X) =  -1069.88431243     A.U. after   11 cycles
 Total Energy, E(TD-HF/TD-DFT) =  -1069.79485607
 SCF Done:  E(RM062X) =  -1069.88427916     A.U. after    7 cycles
 Total Energy, E(TD-HF/TD-DFT) =  -1069.79485665
 SCF Done:  E(RM062X) =  -1069.88424437     A.U. after    9 cycles
 Total Energy, E(TD-HF/TD-DFT) =  -1069.79485812
 SCF Done:  E(RM062X) =  -1069.88426172     A.U. after    9 cycles

 Excitation energies and oscillator strengths:

 Excited State   1:      Singlet-A      2.4328 eV  509.64 nm  f=0.0000  <S**2>=0.000
      81 -> 86         0.67379
      81 -> 89        -0.15411
      81 -> 92         0.11993
 This state for optimization and/or second-order correction.
 Total Energy, E(TD-HF/TD-DFT) =  -1069.79485905
 Copying the excited state density for this state as the 1-particle RhoCI density.

 Excited State   2:      Singlet-A      3.6907 eV  335.94 nm  f=0.2483  <S**2>=0.000
      82 -> 86         0.12474
      84 -> 86        -0.21304
      85 -> 86         0.65031

 Excited State   3:      Singlet-A      3.8971 eV  318.14 nm  f=0.2569  <S**2>=0.000
      83 -> 86         0.14057
      84 -> 86         0.63959
      85 -> 86         0.20708

 Excited State   4:      Singlet-A      4.4115 eV  281.05 nm  f=0.1515  <S**2>=0.000
      82 -> 86        -0.58494
      84 -> 87         0.22005
      85 -> 86         0.15009
      85 -> 87        -0.18576

 Excited State   5:      Singlet-A      4.4339 eV  279.63 nm  f=0.0036  <S**2>=0.000
      73 -> 86         0.65608
      73 -> 89        -0.14589
      73 -> 92         0.11264

 Optimization completed.
    -- Stationary point found.

                         Standard orientation:
 ---------------------------------------------------------------------
 Center     Atomic      Atomic             Coordinates (Angstroms)
 Number     Number       Type             X           Y           Z
 ---------------------------------------------------------------------
      1          6           0        4.467042   -2.263346   -0.346708
      2          6           0        3.347636   -1.863969   -1.079066
      3          6           0        2.702644   -0.701573   -0.690660
      4          6           0        3.143535    0.039113    0.406795
      5          6           0        4.247103   -0.363470    1.124274
      6          6           0        4.916405   -1.529860    0.741005
      7          1           0        2.997799   -2.452801   -1.916470
      8          1           0        5.781443   -1.864128    1.297904
      9          1           0        4.985797   -3.169891   -0.631473
     10          1           0        4.589861    0.209943    1.977947
     11          7           0        1.583421   -0.092426   -1.266478
     12          6           0        1.015390    0.805726   -0.277764
     13          6           0        2.264632    1.261232    0.550828
     14          6           0        0.692157   -0.883958   -2.088343
     15          1           0       -0.116048   -0.253220   -2.455489
     16          1           0        0.265883   -1.728795   -1.534578
     17          6           0        2.970428    2.445834   -0.123919
     18          1           0        3.148487    2.253182   -1.182953
     19          1           0        3.934561    2.600100    0.360781
     20          1           0        2.388710    3.363334   -0.020491
     21          6           0        1.919315    1.625067    1.988523
     22          1           0        1.535385    0.769914    2.539576
     23          1           0        1.171212    2.420552    2.010515
     24          1           0        2.814002    1.992622    2.493503
     25          8           0        0.195993    0.039066    0.638588
     26          6           0       -1.133868   -0.082761    0.460364
     27          6           0        0.227741    1.905324   -0.923460
     28          6           0       -1.102430    1.913567   -0.940680
     29          6           0       -1.854353    0.845816   -0.300899
     30          1           0        0.795088    2.668987   -1.435515
     31          1           0       -1.649210    2.699422   -1.447397
     32          6           0       -3.230457    0.711365   -0.412211
     33          6           0       -1.782264   -1.130171    1.110145
     34          6           0       -3.150837   -1.266855    1.002902
     35          6           0       -3.863165   -0.342163    0.237290
     36          1           0       -3.806405    1.418307   -0.995431
     37          1           0       -1.197017   -1.826183    1.695238
     38          1           0       -3.672188   -2.074044    1.498516
     39          7           0       -5.235745   -0.476914    0.123764
     40          8           0       -6.031032    0.278717   -0.536292
     41          8           0       -5.967102   -1.383014    0.655706
     42          1           0        1.236106   -1.269588   -2.949703
 ---------------------------------------------------------------------

 The electronic state is 1-A.
 Alpha  occ. eigenvalues --  -19.68617 -19.65122 -19.65105 -14.99457 -14.77440
 Alpha  occ. eigenvalues --  -10.65844 -10.64530 -10.61782 -10.58863 -10.58654
 Alpha  occ. eigenvalues --  -10.58155 -10.57935 -10.57042 -10.57030 -10.56986
 Alpha  occ. eigenvalues --  -10.56952 -10.56491 -10.54569 -10.54400 -10.54371
 Alpha  occ. eigenvalues --  -10.54237 -10.53692 -10.53467 -10.53052  -1.32791
 Alpha  occ. eigenvalues --   -1.23108  -1.11312  -1.08622  -1.02202  -0.96273
 Alpha  occ. eigenvalues --   -0.95329  -0.94523  -0.91653  -0.87536  -0.84598
 Alpha  occ. eigenvalues --   -0.83943  -0.83707  -0.79811  -0.78400  -0.75147
 Alpha  occ. eigenvalues --   -0.74357  -0.72388  -0.70635  -0.67766  -0.65341
 Alpha  occ. eigenvalues --   -0.64697  -0.64403  -0.62227  -0.60672  -0.60465
 Alpha  occ. eigenvalues --   -0.58298  -0.58023  -0.57237  -0.55184  -0.54582
 Alpha  occ. eigenvalues --   -0.53985  -0.52839  -0.52054  -0.51323  -0.51062
 Alpha  occ. eigenvalues --   -0.50852  -0.50592  -0.49464  -0.48749  -0.47786
 Alpha  occ. eigenvalues --   -0.47125  -0.46468  -0.45436  -0.44600  -0.44331
 Alpha  occ. eigenvalues --   -0.43966  -0.42355  -0.41620  -0.41332  -0.40857
 Alpha  occ. eigenvalues --   -0.40218  -0.39258  -0.38186  -0.36939  -0.36186
 Alpha  occ. eigenvalues --   -0.34690  -0.33106  -0.31034  -0.29867  -0.26434
 Alpha virt. eigenvalues --   -0.08097  -0.03260   0.01656   0.02064   0.03074
 Alpha virt. eigenvalues --    0.05966   0.07086   0.07866   0.08357   0.08755
 Alpha virt. eigenvalues --    0.09006   0.09968   0.10906   0.11521   0.11878

 Mulliken charges:
               1
     1  C   -0.161145
     2  C   -0.244102
     3  C    0.146439
     4  C   -0.042856
     5  C   -0.202305
     6  C   -0.193846
     7  H    0.171003
     8  H    0.155707
     9  H    0.156826
    10  H    0.166517
    11  N   -0.132167
    12  C    0.191688
    13  C    0.115234
    14  C   -0.437511
    15  H    0.175259
    16  H    0.185892
    17  C   -0.523722
    18  H    0.184634
    19  H    0.167470
    20  H    0.173666
    21  C   -0.472189
    22  H    0.171348
    23  H    0.166472
    24  H    0.164284
    25  O   -0.275561
    26  C    0.137867
    27  C   -0.220762
    28  C   -0.183860
    29  C    0.166679
    30  H    0.194127
    31  H    0.168671
    32  C   -0.171999
    33  C   -0.220813
    34  C   -0.128161
    35  C    0.067710
    36  H    0.198816
    37  H    0.181231
    38  H    0.197512
    39  N    0.428812
    40  O   -0.396465
    41  O   -0.395821
    42  H    0.169422
 Sum of Mulliken charges =  -0.00000

 Dipole moment (field-independent basis, Debye):
    X=              8.2055    Y=              2.0600    Z=             -0.6792  Tot=              8.4873
 Quadrupole moment (field-independent basis, Debye-Ang):
   XX=           -203.8677   YY=           -130.5425   ZZ=           -134.6323
   XY=             -5.9118   XZ=              2.7918   YZ=              0.2258

 Normal termination of Gaussian 16 at Wed May  8 09:07:17 2024.
