 Gaussian 16, Revision A.03,
 Gaussian 16:  ES64L-G16RevA.03 25-Dec-2016

 ----------------------------------------------------------------------
 #P CAM-B3LYP/def2TZVP opt freq=(noraman) scrf=(pcm,solvent=chloroform)
  EmpiricalDispersion=GD3BJ gfinput
 ----------------------------------------------------------------------

 -----
 TITLE
 -----
 Symbolic Z-matrix:
 Charge =  0 Multiplicity = 1

 SCF Done:  E(RCAM-B3LYP) =  -1069.84105826     A.U. after   15 cycles
 SCF Done:  E(RCAM-B3LYP) =  -1069.85506669     A.U. after   13 cycles
 SCF Done:  E(RCAM-B3LYP) =  -1069.85966430     A.U. after   13 cycles
 SCF Done:  E(RCAM-B3LYP) =  -1069.85408371     A.U. after   15 cycles
 SCF Done:  E(RCAM-B3LYP) =  -1069.86306520     A.U. after   13 cycles
 SCF Done:  E(RCAM-B3LYP) =  -1069.86385456     A.U. after   12 cycles
 SCF Done:  E(RCAM-B3LYP) =  -1069.86400422     A.U. after   11 cycles
 SCF Done:  E(RCAM-B3LYP) =  -1069.86403242     A.U. after   11 cycles
 SCF Done:  E(RCAM-B3LYP) =  -1069.86403813     A.U. after   10 cycles
 SCF Done:  E(RCAM-B3LYP) =  -1069.86403982     A.U. after    9 cycles
 SCF Done:  E(RCAM-B3LYP) =  -1069.86298895     A.U. after   13 cycles
 SCF Done:  E(RCAM-B3LYP) =  -1069.86372660     A.U. after   14 cycles
 SCF Done:  E(RCAM-B3LYP) =  -1069.86420997     A.U. after   12 cycles
 SCF Done:  E(RCAM-B3LYP) =  -1069.86422117     A.U. after   11 cycles
 SCF Done:  E(RCAM-B3LYP) =  -1069.86422088     A.U. after   10 cycles
 SCF Done:  E(RCAM-B3LYP) =  -1069.86421911     A.U. after   10 cycles
 SCF Done:  E(RCAM-B3LYP) =  -1069.86422159     A.U. after   10 cycles
 SCF Done:  E(RCAM-B3LYP) =  -1069.86422230     A.U. after    9 cycles
 SCF Done:  E(RCAM-B3LYP) =  -1069.86422233     A.U. after    7 cycles
 Optimization completed.
    -- Stationary point found.

 1\1\GINC-N232\FOpt\RCAM-B3LYP\def2TZVP\C19H18N2O3\ARTD\10-Mar-2024\0\\
 #P CAM-B3LYP/def2TZVP opt freq=(noraman) scrf=(pcm,solvent=chloroform)
  EmpiricalDispersion=GD3BJ gfinput\\TITLE\\0,1\C,-5.7776982002,1.75401
 565,-1.4641436875\C,-5.0314755703,1.0553235096,-0.5180613353\C,-3.9224
 47208,1.6793435579,0.0195289572\C,-3.5531006529,2.9627467032,-0.376015
 9022\C,-4.2935821513,3.6422780643,-1.3114731755\C,-5.4193440107,3.0294
 027301,-1.8622589438\H,-5.314270211,0.0538175539,-0.2258944627\H,-6.00
 89347775,3.5501970633,-2.6042524921\H,-6.6485036043,1.2821630113,-1.90

 Normal termination of Gaussian 16 at Sun Mar 10 12:34:24 2024.

 ----------------------------------------------------------------------
 #P Geom=AllCheck Guess=TCheck SCRF=Check GenChk RCAM-B3LYP/def2TZVP Fr
 eq
 ----------------------------------------------------------------------

 Structure from the checkpoint file:  "sp1_gs_b3lyp.chk"
 -----
 TITLE
 -----
 Charge =  0 Multiplicity = 1

                         Standard orientation:
 ---------------------------------------------------------------------
 Center     Atomic      Atomic             Coordinates (Angstroms)
 Number     Number       Type             X           Y           Z
 ---------------------------------------------------------------------
      1          6           0        4.972379   -1.535184   -0.596995
      2          6           0        4.051068   -0.821958   -1.360268
      3          6           0        3.049733   -0.141399   -0.695050
      4          6           0        2.955062   -0.172435    0.694220
      5          6           0        3.866469   -0.880734    1.437729
      6          6           0        4.887118   -1.570814    0.783218
      7          1           0        4.120632   -0.813641   -2.438897
      8          1           0        5.608790   -2.137604    1.355352
      9          1           0        5.762909   -2.078019   -1.098498
     10          1           0        3.795420   -0.910252    2.517913
     11          7           0        2.031474    0.647215   -1.228113
     12          6           0        1.006040    0.791415   -0.232836
     13          6           0        1.796903    0.700362    1.118563
     14          6           0        1.664086    0.538956   -2.619877
     15          1           0        0.875712    1.255569   -2.840252
     16          1           0        1.308956   -0.463311   -2.879462
     17          6           0        2.335862    2.077860    1.520849
     18          1           0        2.903726    2.536393    0.711889
     19          1           0        3.000396    1.963813    2.376308
     20          1           0        1.527040    2.750430    1.807219
     21          6           0        0.955185    0.131545    2.249919
     22          1           0        0.636305   -0.887250    2.044937
     23          1           0        0.071467    0.748215    2.422497
     24          1           0        1.535920    0.127476    3.172100
     25          8           0        0.167977   -0.404260   -0.335247
     26          6           0       -1.161899   -0.381307   -0.220119
     27          6           0        0.199226    2.035253   -0.409581
     28          6           0       -1.125155    2.050215   -0.374351
     29          6           0       -1.879036    0.820224   -0.216414
     30          1           0        0.765701    2.943731   -0.551030
     31          1           0       -1.671186    2.978524   -0.480867
     32          6           0       -3.255481    0.778896   -0.104644
     33          6           0       -1.818726   -1.603731   -0.131744
     34          6           0       -3.189639   -1.636384   -0.016870
     35          6           0       -3.894304   -0.442533   -0.000186
     36          1           0       -3.833114    1.691158   -0.103467
     37          1           0       -1.236471   -2.513790   -0.146444
     38          1           0       -3.719067   -2.572809    0.063511
     39          7           0       -5.341623   -0.474844    0.123985
     40          8           0       -5.942023    0.583764    0.136579
     41          8           0       -5.887538   -1.558825    0.209813
     42          1           0        2.521242    0.779863   -3.246456
 ---------------------------------------------------------------------

 SCF Done:  E(RCAM-B3LYP) =  -1069.86422233     A.U. after    1 cycles

 The electronic state is 1-A.
 Alpha  occ. eigenvalues --  -19.24721 -19.23684 -19.23675 -14.63905 -14.41044
 Alpha  occ. eigenvalues --  -10.35967 -10.33834 -10.30710 -10.28273 -10.28001
 Alpha  occ. eigenvalues --  -10.27870 -10.27697 -10.27402 -10.27283 -10.27115
 Alpha  occ. eigenvalues --  -10.26525 -10.26514 -10.24879 -10.24722 -10.24653
 Alpha  occ. eigenvalues --  -10.24458 -10.23961 -10.23886 -10.23709  -1.32987
 Alpha  occ. eigenvalues --   -1.18126  -1.14856  -1.06015  -0.98437  -0.94244
 Alpha  occ. eigenvalues --   -0.92599  -0.91355  -0.88764  -0.85443  -0.83041
 Alpha  occ. eigenvalues --   -0.82446  -0.81247  -0.78071  -0.76841  -0.73855
 Alpha  occ. eigenvalues --   -0.72771  -0.71073  -0.69530  -0.66757  -0.65068
 Alpha  occ. eigenvalues --   -0.64345  -0.63823  -0.62603  -0.61501  -0.59737
 Alpha  occ. eigenvalues --   -0.58490  -0.57560  -0.57495  -0.55232  -0.53769
 Alpha  occ. eigenvalues --   -0.53221  -0.52972  -0.51781  -0.51189  -0.50897
 Alpha  occ. eigenvalues --   -0.50462  -0.49796  -0.49094  -0.48903  -0.47904
 Alpha  occ. eigenvalues --   -0.46968  -0.45989  -0.45588  -0.44426  -0.44152
 Alpha  occ. eigenvalues --   -0.43930  -0.42618  -0.41649  -0.41276  -0.39938
 Alpha  occ. eigenvalues --   -0.39327  -0.39190  -0.38825  -0.38452  -0.37368
 Alpha  occ. eigenvalues --   -0.36662  -0.32445  -0.31135  -0.28885  -0.26352
 Alpha virt. eigenvalues --   -0.04854  -0.01291   0.03067   0.03821   0.04557
 Alpha virt. eigenvalues --    0.06850   0.08646   0.09028   0.09234   0.09791
 Alpha virt. eigenvalues --    0.10063   0.10749   0.12133   0.12228   0.13154

 Mulliken charges:
               1
     1  C   -0.131942
     2  C   -0.264777
     3  C    0.153004
     4  C   -0.049903
     5  C   -0.208194
     6  C   -0.172303
     7  H    0.140703
     8  H    0.133621
     9  H    0.137118
    10  H    0.137169
    11  N   -0.145849
    12  C    0.453781
    13  C    0.172701
    14  C   -0.345792
    15  H    0.149509
    16  H    0.143331
    17  C   -0.443407
    18  H    0.147641
    19  H    0.138808
    20  H    0.142307
    21  C   -0.441578
    22  H    0.148564
    23  H    0.141043
    24  H    0.139103
    25  O   -0.293084
    26  C    0.186934
    27  C   -0.369017
    28  C   -0.097474
    29  C    0.135378
    30  H    0.162880
    31  H    0.152730
    32  C   -0.228589
    33  C   -0.256460
    34  C   -0.122278
    35  C    0.060718
    36  H    0.174967
    37  H    0.148375
    38  H    0.176011
    39  N    0.425315
    40  O   -0.338014
    41  O   -0.337310
    42  H    0.144261
 Sum of Mulliken charges =  -0.00000

 Dipole moment (field-independent basis, Debye):
    X=              5.8660    Y=              2.1364    Z=             -0.7756  Tot=              6.2910
 Quadrupole moment (field-independent basis, Debye-Ang):
   XX=           -190.1631   YY=           -134.0298   ZZ=           -132.0409
   XY=             -4.9311   XZ=              1.5551   YZ=             -0.8030

  Exact polarizability: 421.746 -16.706 275.086  -5.037  -5.514 233.824
 Approx polarizability: 360.429 -16.360 299.150  -6.721  -7.559 246.425

                      1                      2                      3
                      A                      A                      A
 Frequencies --     16.8561                40.7223                47.4134
 Red. masses --      5.7615                 5.2005                11.6164
 Frc consts  --      0.0010                 0.0051                 0.0154
 IR Inten    --      0.7269                 0.2877                 0.0648

                      4                      5                      6
                      A                      A                      A
 Frequencies --     89.1272               108.7757               116.3207
 Red. masses --      4.6909                 5.7927                 3.4724
 Frc consts  --      0.0220                 0.0404                 0.0277
 IR Inten    --      1.5873                 1.0876                 2.2263

                      7                      8                      9
                      A                      A                      A
 Frequencies --    124.7224               157.5828               169.8333
 Red. masses --      3.1486                 3.4496                 1.6367
 Frc consts  --      0.0289                 0.0505                 0.0278
 IR Inten    --      2.3344                 3.5539                 0.9857

                     10                     11                     12
                      A                      A                      A
 Frequencies --    191.6991               234.7502               236.0018
 Red. masses --      2.2937                 2.5869                 1.7495
 Frc consts  --      0.0497                 0.0840                 0.0574
 IR Inten    --      0.4500                 2.6312                 0.3208

                     13                     14                     15
                      A                      A                      A
 Frequencies --    244.0442               268.0789               272.2420
 Red. masses --      3.4677                 2.4952                 2.7861
 Frc consts  --      0.1217                 0.1057                 0.1217
 IR Inten    --      4.7447                 0.5430                 6.4266

                     16                     17                     18
                      A                      A                      A
 Frequencies --    289.4185               311.7393               324.9932
 Red. masses --      2.2615                 1.3201                 3.5515
 Frc consts  --      0.1116                 0.0756                 0.2210
 IR Inten    --      0.2148                 0.5286                 0.5929

                     19                     20                     21
                      A                      A                      A
 Frequencies --    332.8415               349.9185               369.2389
 Red. masses --      3.9304                 3.2547                 3.8264
 Frc consts  --      0.2565                 0.2348                 0.3074
 IR Inten    --      3.3594                 1.7060                 1.0639

                     22                     23                     24
                      A                      A                      A
 Frequencies --    414.6692               426.6717               435.4101
 Red. masses --      5.3841                 3.4289                 4.5792
 Frc consts  --      0.5455                 0.3678                 0.5115
 IR Inten    --      0.3878                 3.9894                 7.2777

                     25                     26                     27
                      A                      A                      A
 Frequencies --    467.4466               497.0055               517.1274
 Red. masses --      3.8483                 3.3308                 4.5982
 Frc consts  --      0.4954                 0.4847                 0.7245
 IR Inten    --      4.3029                 4.3851                20.9481

                     28                     29                     30
                      A                      A                      A
 Frequencies --    536.3056               552.9778               563.7231
 Red. masses --      6.2572                 5.5804                 4.1913
 Frc consts  --      1.0604                 1.0054                 0.7848
 IR Inten    --      5.5915                 2.3084                 9.9135

                     31                     32                     33
                      A                      A                      A
 Frequencies --    571.1253               582.6405               589.4186
 Red. masses --      3.5552                 4.7396                 5.3708
 Frc consts  --      0.6832                 0.9480                 1.0993
 IR Inten    --      2.0722                 1.8647                 3.1643

                     34                     35                     36
                      A                      A                      A
 Frequencies --    601.2787               650.2707               654.2968
 Red. masses --      4.1282                 5.1937                 3.5705
 Frc consts  --      0.8794                 1.2939                 0.9006
 IR Inten    --      3.9874                 4.6665                 0.2109

                     37                     38                     39
                      A                      A                      A
 Frequencies --    709.8559               748.1448               770.2998
 Red. masses --      6.5913                 2.4274                 1.2748
 Frc consts  --      1.9569                 0.8005                 0.4457
 IR Inten    --     37.9436                 5.0090                84.9462

                     40                     41                     42
                      A                      A                      A
 Frequencies --    782.4221               792.8121               795.8640
 Red. masses --      4.0644                 4.7081                 4.6217
 Frc consts  --      1.4660                 1.7436                 1.7248
 IR Inten    --      7.5173                44.7680                15.1907

                     43                     44                     45
                      A                      A                      A
 Frequencies --    797.0136               813.4716               843.6632
 Red. masses --      3.4517                 2.0125                 4.4239
 Frc consts  --      1.2919                 0.7846                 1.8552
 IR Inten    --      8.8491                18.8310                65.3368

                     46                     47                     48
                      A                      A                      A
 Frequencies --    854.8322               877.2713               883.6863
 Red. masses --      4.5005                 2.1419                 2.3121
 Frc consts  --      1.9376                 0.9712                 1.0638
 IR Inten    --    141.2762                27.7981                 3.1565

                     49                     50                     51
                      A                      A                      A
 Frequencies --    889.1546               950.6382               961.9009
 Red. masses --      1.9598                 2.6270                 2.2125
 Frc consts  --      0.9129                 1.3988                 1.2061
 IR Inten    --      1.2290                 5.9255                22.3190

                     52                     53                     54
                      A                      A                      A
 Frequencies --    966.3634               968.4279               972.6559
 Red. masses --      1.7389                 1.5360                 1.5877
 Frc consts  --      0.9568                 0.8488                 0.8850
 IR Inten    --     34.7621                25.0058                 0.7995

                     55                     56                     57
                      A                      A                      A
 Frequencies --    992.7528               993.6114              1008.3497
 Red. masses --      2.0556                 1.7685                 1.3686
 Frc consts  --      1.1936                 1.0287                 0.8199
 IR Inten    --    282.2308               199.9124                 0.0710

                     58                     59                     60
                      A                      A                      A
 Frequencies --   1027.3286              1034.8416              1050.8391
 Red. masses --      2.1552                 1.3598                 1.8576
 Frc consts  --      1.3401                 0.8580                 1.2086
 IR Inten    --     10.7270                 4.5641                68.9655

                     61                     62                     63
                      A                      A                      A
 Frequencies --   1061.1194              1104.1719              1121.4964
 Red. masses --      2.0969                 2.9981                 1.7635
 Frc consts  --      1.3911                 2.1536                 1.3068
 IR Inten    --     64.0268                11.0967               348.4511

                     64                     65                     66
                      A                      A                      A
 Frequencies --   1141.3921              1151.3249              1155.7483
 Red. masses --      1.8148                 1.5289                 1.3580
 Frc consts  --      1.3930                 1.1940                 1.0687
 IR Inten    --     45.1459                10.8858                14.2602

                     67                     68                     69
                      A                      A                      A
 Frequencies --   1159.5497              1181.6941              1185.2556
 Red. masses --      1.3675                 1.5111                 1.8766
 Frc consts  --      1.0833                 1.2432                 1.5532
 IR Inten    --     34.6587                 1.0180                24.4341

                     70                     71                     72
                      A                      A                      A
 Frequencies --   1200.2261              1222.1321              1229.8706
 Red. masses --      1.6757                 2.4041                 2.1546
 Frc consts  --      1.4222                 2.1156                 1.9202
 IR Inten    --     11.8570                18.6407                86.2235

                     73                     74                     75
                      A                      A                      A
 Frequencies --   1262.1839              1288.5559              1299.8857
 Red. masses --      2.4938                 1.7116                 2.3612
 Frc consts  --      2.3407                 1.6744                 2.3507
 IR Inten    --     45.1417                13.6515                10.6282

                     76                     77                     78
                      A                      A                      A
 Frequencies --   1322.5712              1328.2286              1341.0673
 Red. masses --      3.7235                 3.2696                 5.7498
 Frc consts  --      3.8375                 3.3985                 6.0926
 IR Inten    --     10.4727               528.7982                81.9668

                     79                     80                     81
                      A                      A                      A
 Frequencies --   1348.7714              1374.1403              1405.2205
 Red. masses --      2.0123                 8.2567                 3.8953
 Frc consts  --      2.1568                 9.1858                 4.5319
 IR Inten    --     26.1587                95.4898                82.4607

                     82                     83                     84
                      A                      A                      A
 Frequencies --   1410.2321              1414.8779              1428.0633
 Red. masses --      1.2784                 7.5326                 2.3492
 Frc consts  --      1.4979                 8.8845                 2.8227
 IR Inten    --      9.2667               861.8714                 7.2614

                     85                     86                     87
                      A                      A                      A
 Frequencies --   1429.1914              1468.2929              1492.5384
 Red. masses --      1.2465                 1.1998                 1.0595
 Frc consts  --      1.5001                 1.5240                 1.3907
 IR Inten    --     13.2903                11.0346                19.8215

                     88                     89                     90
                      A                      A                      A
 Frequencies --   1493.1650              1493.7228              1503.4738
 Red. masses --      1.0628                 1.0469                 2.9994
 Frc consts  --      1.3960                 1.3762                 3.9947
 IR Inten    --     25.6092                 1.1515                14.2338

                     91                     92                     93
                      A                      A                      A
 Frequencies --   1506.2398              1507.3074              1514.6600
 Red. masses --      1.1753                 1.2251                 1.0869
 Frc consts  --      1.5710                 1.6400                 1.4691
 IR Inten    --      1.3764                23.8804                70.4361

                     94                     95                     96
                      A                      A                      A
 Frequencies --   1523.4077              1539.4014              1544.0031
 Red. masses --      1.7749                 3.2761                 3.0745
 Frc consts  --      2.4269                 4.5741                 4.3184
 IR Inten    --     48.6630               155.1017               121.0475

                     97                     98                     99
                      A                      A                      A
 Frequencies --   1603.9710              1654.5544              1675.9676
 Red. masses --     12.2837                 7.3032                 7.0170
 Frc consts  --     18.6197                11.7795                11.6127
 IR Inten    --    365.4409               132.9137                 4.0944

                    100                    101                    102
                      A                      A                      A
 Frequencies --   1687.5034              1689.0702              1751.8528
 Red. masses --      6.9547                 8.0142                 7.6994
 Frc consts  --     11.6686                13.4712                13.9220
 IR Inten    --     96.5374               129.2563                52.7330

                    103                    104                    105
                      A                      A                      A
 Frequencies --   3031.2409              3060.4649              3064.5900
 Red. masses --      1.0477                 1.0357                 1.0378
 Frc consts  --      5.6720                 5.7154                 5.7424
 IR Inten    --     66.4537                17.7121                30.0489

                    106                    107                    108
                      A                      A                      A
 Frequencies --   3112.4011              3123.6519              3132.6652
 Red. masses --      1.0888                 1.1012                 1.1027
 Frc consts  --      6.2140                 6.3305                 6.3757
 IR Inten    --     25.8803                18.2822                46.5480

                    109                    110                    111
                      A                      A                      A
 Frequencies --   3138.2186              3150.2007              3155.7563
 Red. masses --      1.1033                 1.1031                 1.1012
 Frc consts  --      6.4018                 6.4497                 6.4615
 IR Inten    --     22.3880                15.3540                18.2712

                    112                    113                    114
                      A                      A                      A
 Frequencies --   3189.5039              3196.9264              3201.5606
 Red. masses --      1.0873                 1.0897                 1.0899
 Frc consts  --      6.5171                 6.5620                 6.5818
 IR Inten    --      3.3895                11.1218                 6.3574

                    115                    116                    117
                      A                      A                      A
 Frequencies --   3213.2199              3221.1136              3226.8961
 Red. masses --      1.0934                 1.0960                 1.0913
 Frc consts  --      6.6514                 6.6998                 6.6954
 IR Inten    --     25.7502                12.6278                 0.6257

                    118                    119                    120
                      A                      A                      A
 Frequencies --   3232.9850              3239.7499              3253.4082
 Red. masses --      1.0955                 1.0920                 1.0939
 Frc consts  --      6.7467                 6.7532                 6.8221
 IR Inten    --      0.6811                 3.1993                 5.1228

 - Thermochemistry -
 -------------------
 Temperature   298.150 Kelvin.  Pressure   1.00000 Atm.
 Atom     1 has atomic number  6 and mass  12.00000

 Molecular mass:   322.13174 amu.
 Principal axes and moments of inertia in atomic units:
                           1         2         3
     Eigenvalues --  2885.54607********************
           X            1.00000  -0.00234   0.00161
           Y            0.00228   0.99939   0.03482
           Z           -0.00169  -0.03481   0.99939
 This molecule is an asymmetric top.
 Rotational symmetry number  1.
 Warning -- assumption of classical behavior for rotation
           may cause significant error
 Rotational temperatures (Kelvin)      0.03002     0.00610     0.00596
 Rotational constants (GHZ):           0.62544     0.12705     0.12422
 Zero-point vibrational energy     891239.1 (Joules/Mol)
                                  213.01126 (Kcal/Mol)
 Warning -- explicit consideration of  34 degrees of freedom as
           vibrations may cause significant error
 Vibrational temperatures:     24.25    58.59    68.22   128.23   156.50
          (Kelvin)            167.36   179.45   226.73   244.35   275.81
                              337.75   339.55   351.13   385.71   391.70
                              416.41   448.52   467.59   478.88   503.45
                              531.25   596.62   613.89   626.46   672.55
                              715.08   744.03   771.62   795.61   811.07
                              821.72   838.29   848.04   865.11   935.59
                              941.39  1021.32  1076.41  1108.29  1125.73
                             1140.68  1145.07  1146.72  1170.40  1213.84
                             1229.91  1262.20  1271.43  1279.30  1367.76
                             1383.96  1390.38  1393.35  1399.43  1428.35
                             1429.59  1450.79  1478.10  1488.91  1511.92
                             1526.71  1588.66  1613.58  1642.21  1656.50
                             1662.86  1668.33  1700.19  1705.32  1726.86
                             1758.38  1769.51  1816.00  1853.94  1870.25
                             1902.89  1911.02  1929.50  1940.58  1977.08
                             2021.80  2029.01  2035.69  2054.66  2056.29
                             2112.55  2147.43  2148.33  2149.13  2163.16
                             2167.14  2168.68  2179.26  2191.84  2214.86
                             2221.48  2307.76  2380.53  2411.34  2427.94
                             2430.20  2520.53  4361.28  4403.33  4409.26
                             4478.05  4494.24  4507.21  4515.20  4532.44
                             4540.43  4588.98  4599.66  4606.33  4623.11
                             4634.46  4642.78  4651.54  4661.28  4680.93

 Zero-point correction=                           0.339455 (Hartree/Particle)
 Thermal correction to Energy=                    0.359191
 Thermal correction to Enthalpy=                  0.360136
 Thermal correction to Gibbs Free Energy=         0.291079
 Sum of electronic and zero-point Energies=          -1069.524767
 Sum of electronic and thermal Energies=             -1069.505031
 Sum of electronic and thermal Enthalpies=           -1069.504087
 Sum of electronic and thermal Free Energies=        -1069.573143

                     E (Thermal)             CV                S
                      KCal/Mol        Cal/Mol-Kelvin    Cal/Mol-Kelvin
 Total                  225.396             79.302            145.341
 Electronic               0.000              0.000              0.000
 Translational            0.889              2.981             43.205
 Rotational               0.889              2.981             34.742
 Vibrational            223.619             73.341             67.394
 Vibration     1          0.593              1.986              6.974
 Vibration     2          0.594              1.981              5.224
 Vibration     3          0.595              1.979              4.922
 Vibration     4          0.602              1.957              3.679
 Vibration     5          0.606              1.942              3.291
 Vibration     6          0.608              1.936              3.161
 Vibration     7          0.610              1.928              3.026
 Vibration     8          0.621              1.894              2.579
 Vibration     9          0.625              1.880              2.437
 Vibration    10          0.634              1.851              2.211
 Vibration    11          0.655              1.788              1.842
 Vibration    12          0.655              1.786              1.833
 Vibration    13          0.659              1.773              1.773
 Vibration    14          0.673              1.732              1.609
 Vibration    15          0.675              1.724              1.582
 Vibration    16          0.686              1.693              1.477
 Vibration    17          0.700              1.651              1.353
 Vibration    18          0.709              1.625              1.285
 Vibration    19          0.715              1.610              1.246
 Vibration    20          0.727              1.575              1.167
 Vibration    21          0.742              1.535              1.083
 Vibration    22          0.778              1.438              0.910
 Vibration    23          0.788              1.412              0.870
 Vibration    24          0.796              1.393              0.841
 Vibration    25          0.825              1.322              0.745
 Vibration    26          0.853              1.257              0.666
 Vibration    27          0.872              1.212              0.617
 Vibration    28          0.891              1.170              0.573
 Vibration    29          0.908              1.133              0.538
 Vibration    30          0.920              1.110              0.516
 Vibration    31          0.927              1.094              0.502
 Vibration    32          0.939              1.069              0.480
 Vibration    33          0.947              1.054              0.468
 Vibration    34          0.960              1.029              0.447

 Optimization completed.
    -- Stationary point found.

 1\1\GINC-N232\Freq\RCAM-B3LYP\def2TZVP\C19H18N2O3\ARTD\10-Mar-2024\0\\
 #P Geom=AllCheck Guess=TCheck SCRF=Check GenChk RCAM-B3LYP/def2TZVP Fr
 eq\\TITLE\\0,1\C,-5.7776982002,1.75401565,-1.4641436875\C,-5.031475570
 3,1.0553235096,-0.5180613353\C,-3.922447208,1.6793435579,0.0195289572\
 C,-3.5531006529,2.9627467032,-0.3760159022\C,-4.2935821513,3.642278064
 3,-1.3114731755\C,-5.4193440107,3.0294027301,-1.8622589438\H,-5.314270
 211,0.0538175539,-0.2258944627\H,-6.0089347775,3.5501970633,-2.6042524
 921\H,-6.6485036043,1.2821630113,-1.900224945\H,-4.0088807669,4.639156

 Normal termination of Gaussian 16 at Sun Mar 10 15:34:19 2024.
